7
Properties=species:S:1:pos:R:3:energy:R:1 pbc="F F F"
O        0.23947458      -1.34716797      -0.12501468     -28.60160975
C        0.97146207      -0.34981608      -0.13612089     -28.60160975
N        0.58929968       0.93141866      -0.08536160     -28.60160975
N       -0.90628546       1.13570297      -0.63554299     -28.60160975
C       -1.21230912       0.26282495       0.11684331     -28.60160975
H        2.06966972      -0.41696990      -0.14543590     -28.60160975
H       -1.78569221      -0.31935638       0.81484765     -28.60160975
