7
Properties=species:S:1:pos:R:3:energy:R:1 pbc="F F F"
O        0.63137078       1.43233633      -0.02034950     -27.42716696
C        0.81238937      -0.47655478      -0.28974080     -27.42716696
N       -0.12872152      -0.85993260      -0.96072817     -27.42716696
C       -0.83444345      -0.07690208       0.18228713     -27.42716696
N       -0.57692683       1.20426571       0.32963678     -27.42716696
H        1.79294002      -0.70769429       0.10777773     -27.42716696
H       -1.66661429      -0.61246091       0.61499268     -27.42716696
