7
Properties=species:S:1:pos:R:3:energy:R:1 pbc="F F F"
O        0.51017594      -1.19506490       0.20457152     -30.18057220
C        1.13908577      -0.21871373      -0.19227998     -30.18057220
N        0.60237038       1.03125763      -0.44281265     -30.18057220
N       -0.66602165       0.88875657      -0.15397063     -30.18057220
C       -1.45253837       0.10155149       0.21909772     -30.18057220
H        2.21608400      -0.25157776      -0.38955104     -30.18057220
H       -2.35505915      -0.35758331       0.56481677     -30.18057220
