7
Properties=species:S:1:pos:R:3:energy:R:1 pbc="F F F"
O        1.06137764       1.13506508      -0.09751331     -29.56871263
C        1.14899457      -0.07829768       0.00039017     -29.56871263
N        0.05675916      -0.94731462       0.05698815     -29.56871263
C       -0.94120049      -0.12926307      -0.01673443     -29.56871263
N       -1.36131668       1.02632415      -0.10929421     -29.56871263
H        2.11577964      -0.59241068       0.05317386     -29.56871263
H       -2.11487556      -0.27591586      -0.02219819     -29.56871263
