7
Properties=species:S:1:pos:R:3:energy:R:1 pbc="F F F"
O        1.30992949       1.15533292      -0.27343023     -29.08163206
C        1.13634193      -0.00903906       0.04357570     -29.08163206
N       -0.00617466      -0.64226091       0.36770386     -29.08163206
C       -1.25783956      -0.15717365      -0.03783338     -29.08163206
N       -1.12997913       1.06753552      -0.01842573     -29.08163206
H        1.97550988      -0.72463644       0.10887509     -29.08163206
H       -2.10852003      -0.81564188      -0.19540173     -29.08163206
