12
Properties=species:S:1:pos:R:3:forces:R:3 energy=-0.23125803470611572 pbc="F F F"
C       -1.41911407       0.18531010      -0.23030704      -0.01080149       0.00256273       0.00861881
N       -0.40276612      -1.59235796      -1.70862989      -0.00541822      -0.00325591      -0.00107495
C       -0.24969428      -0.44301251      -1.43783792      -0.00468346       0.01899168       0.01800053
N        0.56344165      -0.23129604       0.78467053      -0.00227009      -0.00299331      -0.00059803
C        1.68227188       0.52059788       0.62654348       0.00574183       0.00703390       0.00483269
O        2.83476990       0.12686093       0.73786948       0.00030447      -0.00651910      -0.02621957
H       -1.68637988      -0.52164973       0.54565678       0.01153810      -0.02539191       0.00839062
H       -1.17131843       1.16973271       0.14838198       0.02002617       0.00762857       0.00582275
H       -2.18560988       0.23534773      -1.00988100      -0.00337704       0.01675642      -0.02455147
H        0.26305489       0.44060471      -1.81408725       0.00541732       0.00485384       0.00847570
H        0.80791931      -1.22483284       0.75095708       0.01203311      -0.01587565      -0.01320072
H        1.45947070       1.59115665       0.42544475      -0.01299906       0.00536834       0.01530403
