12
Properties=species:S:1:pos:R:3:forces:R:3 energy=-0.18971657752990723 pbc="F F F"
C       -1.99716130      -0.25933032      -1.05065356       0.01268532       0.01282626      -0.00447694
N       -0.71248843      -0.65482840      -1.22586912       0.00979778      -0.01398467      -0.02356876
C       -0.11189310       0.14920494      -0.31108267      -0.00044491      -0.00455302      -0.01493197
N        0.94337312      -0.34612000       0.45967376       0.01087313      -0.00482852       0.02325578
C        2.17511010       0.26060550       0.55880767      -0.00430902      -0.00810924       0.01035224
O        3.13854501      -0.23769738       1.08914363       0.01216208       0.02632412      -0.01356964
H       -1.45114160       0.70204715      -0.00587211      -0.00025552      -0.00091365      -0.00802158
H       -2.65045927      -0.18518274      -1.92909533      -0.02041854       0.00655789       0.01334505
H       -2.52540836      -0.57174058      -0.15188492      -0.01771207      -0.00323860      -0.00052101
H        0.05588296       1.18468648      -0.60569816      -0.01553209       0.00277227       0.01661129
H        0.89607877      -1.30741681       0.77347005       0.00001852       0.00081058       0.00008410
H        2.19012999       1.26073087       0.08531522       0.01360225      -0.01319639       0.00710943
