12
Properties=species:S:1:pos:R:3:forces:R:3 energy=1.0642646551132202 pbc="F F F"
C       -2.29005302      -0.23575789      -0.78589168      -0.02355614      -0.00740798      -0.00801749
N       -1.02557045      -0.70771817      -0.26569683      -0.02031565      -0.02827108       0.00999434
C       -0.05659772       0.09866945      -0.26557681      -0.01858787      -0.01277119      -0.00200891
N        1.18698643      -0.29299223       0.22658150      -0.01556415       0.00476881      -0.00241484
C        2.26737072       0.49925964       0.28281420       0.00549219      -0.00702514       0.00544084
O        3.35836336      -0.01444333       0.78030845       0.01494021       0.00550942      -0.00343478
H       -3.04756831      -0.29680685       0.00270975       0.00034296       0.01560689       0.02775274
H       -2.25734618       0.79940927      -1.16099564       0.03913042       0.01516352       0.01245783
H       -2.61377525      -0.89291733      -1.59950120       0.02358502      -0.00946045      -0.03222499
H       -0.07653791       1.13363399      -0.62753732       0.00132693       0.00185392       0.00345480
H        1.27560777      -1.24602660       0.57938423      -0.01479620       0.02296020      -0.00961750
H        3.30624308       1.13477655       0.37614846       0.01455689       0.00635998       0.00252003
