12
Properties=species:S:1:pos:R:3:forces:R:3 energy=1.3892765045166016 pbc="F F F"
C       -2.25950537       0.03960482      -0.87136696      -0.01738904       0.01102590       0.01619806
N       -1.04742994      -0.44565489      -0.41897827       0.01727613       0.01104944      -0.00842871
C        0.13815766       0.05126141      -0.58730367      -0.02997663      -0.01861280       0.04710906
N        1.24604023      -0.47575820       0.09864935      -0.01969499       0.03470143      -0.04710449
C        2.19558588       0.30753460       0.69127678       0.00736210      -0.00232714       0.00443727
O        3.22205299      -0.10629438       1.18449417       0.01307350       0.01067520       0.00708754
H       -1.77053339      -0.32159246       0.45683356       0.01655295       0.00384025      -0.01513841
H       -2.29208487       0.88039891      -1.56626757       0.02450337       0.00269907       0.00094777
H       -3.06534803      -0.68471971      -0.87805543      -0.01420158      -0.00527190      -0.00636538
H        0.30066924       0.87973076      -1.27530786       0.01690019      -0.00985386      -0.01444778
H        1.43945398      -1.46955710       0.06830184       0.00360661       0.00149831       0.00340390
H        1.91706669       1.37929078       0.67242940      -0.00658857      -0.01177165      -0.00206334
