7
Properties=species:S:1:pos:R:3:forces:R:3 energy=2.185451030731201 pbc="F F F"
O        0.12398936      -0.86637122       0.10854766      -0.03972986       0.08781220      -0.07046320
C        1.30686374      -0.37688963       0.02690170      -0.25866887      -0.09311995       0.02450328
N       -0.36431092       1.71532980      -0.47553456      -0.04010426      -0.01710050       0.01078255
N       -0.34221298       1.71360062      -0.43808226       0.04369068       0.00994109      -0.00619479
C       -1.12129274      -0.58755533      -0.15174597       0.30043522      -0.02119388       0.06377993
H        1.98776898      -1.23276075      -0.12562209       0.02116852       0.01819385      -0.01281565
H       -1.66868616      -0.65109069       0.81288971      -0.03084849       0.02767920      -0.02277601
