11
Properties=species:S:1:pos:R:3:forces:R:3 energy=2.311438798904419 pbc="F F F"
C       -1.59282967      -0.04940304      -0.78599089      -0.02252112      -0.01097661      -0.01019160
N       -0.36510741      -0.17396710       0.86318913       0.00854392       0.00899677      -0.01192368
C        0.66350860       0.02008306       0.08593150       0.00639124      -0.00101116       0.00176608
O        0.38820583       0.20366938      -1.13786748      -0.00677343       0.00653106       0.00048004
N        1.98116458       0.01329667       0.50026819       0.00019102      -0.00548166       0.01667175
H       -1.56667984       0.40328428      -1.77176032      -0.01264272       0.00848283      -0.04010782
H       -1.74438359      -1.12112433      -0.80451102       0.00921953      -0.01069811       0.02112493
H       -2.25569178       0.47730538      -0.11019408       0.02889893       0.00579308       0.02746983
H       -0.23426413      -0.48912931       1.81970835      -0.00946055       0.00048017      -0.00486418
H        2.14519184       0.32216970       1.44644735      -0.00049998      -0.00220424       0.00297133
H        2.61631539       0.41649326      -0.17222122      -0.00868647       0.00485635      -0.00237439
