7
Properties=species:S:1:pos:R:3:forces:R:3 energy=-0.20691192150115967 pbc="F F F"
O        0.24852522      -1.34392384      -0.18969096       0.00930793      -0.05130379       0.02492502
C        0.96417251      -0.33552596      -0.19647406      -0.09979512       0.08737424      -0.04059501
N        0.56530878       0.93814317      -0.07615456       0.08768281       0.04454201      -0.03306149
N       -0.94335763       1.15292408      -0.55642559       0.03317094      -0.02338701       0.02024789
C       -1.22214954       0.25246737       0.17349972      -0.01423331      -0.05210895       0.02604429
H        2.06105796      -0.38698581      -0.26343026      -0.00894924      -0.01616162       0.02519855
H       -1.75875639      -0.36426732       0.87076915       0.01461031      -0.01526931      -0.02766068
