7
Properties=species:S:1:pos:R:3:forces:R:3 energy=0.6654173135757446 pbc="F F F"
O        1.85444150      -0.68667375       0.19512309      -0.04147992       0.00264302       0.00218987
N        0.57139840       1.34012625      -0.83530469      -0.04974473       0.02853793      -0.01965669
C       -0.42988416       0.93923193      -0.27889879       0.03915420      -0.01833928      -0.01598404
C       -0.30544571      -0.61633006      -0.40246617       0.03186804      -0.01506935       0.00274022
N        0.75650690      -1.17743461       0.06008078       0.00194496      -0.02277720       0.00595952
H       -1.33016095       1.38809009       0.14142667       0.00042537       0.00390685       0.01368914
H       -1.04222720      -1.16793426      -0.97425346       0.01331193       0.00183906       0.01438007
