7
Properties=species:S:1:pos:R:3:forces:R:3 energy=-1.1580259799957275 pbc="F F F"
O        0.67716928       1.24737451      -0.22545667      -0.01971402      -0.00831077       0.00626698
C        1.21589973       0.03305242      -0.38240196       0.00010007      -0.02935149       0.01736469
N        0.23701016      -0.88801461      -0.19681574      -0.02679665       0.02547980      -0.01612709
C       -0.90424466      -0.12886641       0.09018680      -0.00622641      -0.00601314       0.00362737
N       -0.69665520       1.13515704       0.00261955       0.02783207       0.00647544      -0.00564282
H        1.31189456      -0.93926873       0.45487260       0.04468172       0.02481519      -0.01282050
H       -1.87821743      -0.55413666       0.28594850      -0.02485212      -0.00257581       0.00728045
