7
Properties=species:S:1:pos:R:3:forces:R:3 energy=0.6735019683837891 pbc="F F F"
O        0.55969921       1.51125618      -0.06365832       0.02871594      -0.02714319       0.02989298
C        0.87554604      -0.51122094      -0.17339378      -0.01329377       0.00622700      -0.03276951
N       -0.03477967      -0.94474344      -0.84872758      -0.00156511      -0.04599630       0.01039846
C       -0.84188330      -0.08238273       0.15613037       0.00336226       0.03186074       0.00810663
N       -0.64448602       1.22004966       0.17719511      -0.01334056       0.01965967       0.00765389
H        1.85704840      -0.68400117       0.24656102       0.01126102       0.00860000       0.00708805
H       -1.70059207      -0.59718367       0.56153036       0.00961384       0.00996239      -0.01191718
