7
Properties=species:S:1:pos:R:3:forces:R:3 energy=0.16304397583007812 pbc="F F F"
O        0.63086343       1.36055850      -0.06547724      -0.00447731      -0.02387306      -0.00314969
C        1.16799397      -0.68736125       0.05285704      -0.00577222       0.00855354       0.00251529
N        0.16155959      -1.29419801       0.07689063       0.00353691       0.00023437      -0.00452117
C       -1.30394568       0.16553973      -0.02420965      -0.00606701      -0.01481907      -0.00194756
N       -0.58147654       1.11780092      -0.06855706       0.01410928      -0.00729868       0.00518826
H        2.21597268      -0.46610108       0.05018624      -0.00929380       0.01136267       0.00116835
H       -2.31718855      -0.18518327      -0.01993774       0.01295624       0.01727966      -0.00056923
