7
Properties=species:S:1:pos:R:3:forces:R:3 energy=-0.22829365730285645 pbc="F F F"
O        1.29290877       1.12730673      -0.31591188       0.01552854      -0.00846071      -0.04219889
C        1.13054410      -0.02599151       0.04605975      -0.00299768      -0.00483612       0.02823268
N       -0.00886842      -0.65082842       0.39868428      -0.00095626      -0.01676854      -0.01693470
C       -1.24831600      -0.14722189      -0.02978656      -0.00347289       0.00041163       0.00577565
N       -1.12225866       1.07712954       0.00205942      -0.00073919      -0.00449464       0.02373114
H        1.97620908      -0.73149355       0.12617391      -0.01755651       0.02242222       0.00722350
H       -2.10077019      -0.79303278      -0.22660762       0.01166625       0.00696241      -0.00346947
