7
Properties=species:S:1:pos:R:3:forces:R:3 energy=-0.2697352170944214 pbc="F F F"
O        0.73541714       1.30626487      -0.06194308       0.02423914       0.01342211       0.00269080
C        1.15099747      -0.90955813       0.04549022       0.02523809      -0.00710971      -0.00390596
N       -0.01900198      -1.14669904       0.05336327      -0.02190055      -0.02755059       0.00349721
C       -1.00339286      -0.10008790       0.00456626       0.02420608       0.04045399      -0.00434922
N       -0.51003262       1.07817612      -0.05323039       0.01049335      -0.02322588       0.00854465
H        1.70014394       0.09859863       0.00315334      -0.02651416       0.02151000      -0.00283631
H       -2.05713231      -0.32667660       0.00931277      -0.02811959      -0.00274036       0.00021385
