7
Properties=species:S:1:pos:R:3:forces:R:3 energy=-2.7885336875915527 pbc="F F F"
O        1.09007835       1.08401787       0.06452479      -0.04720128       0.02449698       0.01147728
C        1.14814970      -0.13252042      -0.01564309       0.00594524      -0.00941025      -0.00807367
N        0.03637758      -0.97554857      -0.06010638       0.01072152      -0.01020491      -0.02065744
C       -0.94042329      -0.13143416      -0.00100174       0.01570175       0.02263456      -0.00860214
N       -1.33196792       1.03616008       0.07233167      -0.02145459      -0.02817934       0.01077336
H        2.10224973      -0.67047561      -0.06043085       0.01628065      -0.02658562       0.00826200
H       -2.11596409      -0.24684088       0.00886160       0.01966664       0.02034406       0.00797686
