7
Properties=species:S:1:pos:R:3:forces:R:3 energy=-0.2700681686401367 pbc="F F F"
O        0.77748958       1.77910267       0.00680070      -0.04950542       0.02120114      -0.00843421
C       -0.25958463       1.19382901       0.22794005       0.01944942      -0.00643642       0.00558725
C       -0.32638039      -0.19381363       0.72956746       0.02768365       0.01615851       0.03500009
N        0.45111006      -1.09678389       0.26886584      -0.00982484      -0.01361735      -0.01503120
N        1.05969894      -2.07437905      -0.09538053      -0.01653839       0.01292214       0.00727717
H       -1.24182285       1.69106565       0.14053628       0.02911546      -0.00325245      -0.00387702
H       -0.38461803      -1.66415081      -0.16922157       0.00106087      -0.01840097      -0.01513493
