62
Properties=species:S:1:pos:R:3:energy:R:1 pbc="F F F"
C        1.41480684      -3.01535702       0.38154340      69.21248397
H        1.37443316      -3.67686176      -0.48567998      69.21248397
H        2.40617657      -2.62324953       0.61294329      69.21248397
C        0.46065584      -3.14262986       1.39827192      69.21248397
H       -0.34733152      -3.87486649       1.33200240      69.21248397
H        0.72267771      -2.84483361       2.41776800      69.21248397
H       -0.52896535      -1.26949060       1.56011438      69.21248397
Rh      -0.02964053      -1.34850502       0.02552406      69.21248397
O        1.39110732       1.34939885       1.67866278      69.21248397
C        3.40308928      -0.17011544       0.62778294      69.21248397
C        1.81921661       1.68644905      -0.89969867      69.21248397
O       -1.32017910       1.26662397      -1.58417571      69.21248397
C       -3.32992387      -0.40499195      -0.70716256      69.21248397
C       -1.90431201       1.41556549       1.08510602      69.21248397
P       -1.64922452       0.23316747      -0.30722642      69.21248397
P        1.63844335       0.33493575       0.34433955      69.21248397
C       -0.58241707      -2.25411057      -1.57205534      69.21248397
O       -1.07703769      -2.86838460      -2.42216802      69.21248397
C        1.10618401       0.77688766       2.93912220      69.21248397
H        0.34424001      -0.01800925       2.85506845      69.21248397
H        2.01105714       0.34456378       3.40549016      69.21248397
H        0.72336698       1.57555926       3.59256387      69.21248397
H        3.94881725       0.68636572       1.05620456      69.21248397
H        3.39201736      -0.95596886       1.40220010      69.21248397
C        4.08486128      -0.69021034      -0.64216715      69.21248397
H        4.25964975       0.15405807      -1.33048916      69.21248397
H        3.39906526      -1.37366295      -1.17287004      69.21248397
C        5.40761042      -1.40232396      -0.36081576      69.21248397
H        6.11296701      -0.74139696       0.17017853      69.21248397
H        5.25073242      -2.29381204       0.26925203      69.21248397
H        5.89290762      -1.73293245      -1.29315341      69.21248397
H        2.10220194       1.18242431      -1.84007132      69.21248397
H        0.79948556       2.06256390      -1.07366300      69.21248397
C        2.77864480       2.82941151      -0.56127453      69.21248397
H        3.80715585       2.44313788      -0.45646697      69.21248397
H        2.50492311       3.24232745       0.42255947      69.21248397
C        2.76139975       3.93386078      -1.61943889      69.21248397
H        3.05658674       3.54602623      -2.60917711      69.21248397
H        1.75271165       4.36766434      -1.72460675      69.21248397
H        3.45280027       4.75266743      -1.36123896      69.21248397
C       -2.27179122       1.83331311      -2.46911645      69.21248397
H       -2.73982978       1.06834757      -3.11150122      69.21248397
H       -3.06937003       2.38845587      -1.94617558      69.21248397
H       -1.73195481       2.54177356      -3.11607504      69.21248397
H       -4.02785683       0.42069727      -0.92136538      69.21248397
H       -3.21547723      -0.98890996      -1.63557839      69.21248397
C       -3.86214590      -1.29611146       0.41659784      69.21248397
H       -4.08004856      -0.67328006       1.30202162      69.21248397
H       -3.05842018      -1.98870754       0.71639371      69.21248397
C       -5.10582685      -2.07959342       0.00768193      69.21248397
H       -5.92373514      -1.40888751      -0.30474573      69.21248397
H       -4.88084507      -2.74942851      -0.83855015      69.21248397
H       -5.47560978      -2.69956088       0.83941627      69.21248397
H       -2.11252642       0.78231573       1.96323383      69.21248397
H       -0.91012502       1.85649014       1.26207912      69.21248397
C       -2.96401405       2.50861669       0.93266690      69.21248397
H       -3.94419360       2.06054330       0.69418615      69.21248397
H       -2.70253181       3.15819025       0.08126063      69.21248397
C       -3.09489107       3.35992217       2.19763660      69.21248397
H       -3.37583899       2.73950934       3.06499958      69.21248397
H       -2.14134002       3.85648394       2.44183445      69.21248397
H       -3.86253285       4.14206171       2.08217812      69.21248397
