98
Properties=species:S:1:pos:R:3:energy:R:1 pbc="F F F"
C        1.02906191       0.33192289      -3.54327321      99.27295237
H        1.06821239       1.37791824      -3.86146855      99.27295237
H        1.99241841      -0.18230060      -3.57483506      99.27295237
C       -0.17436685      -0.38095960      -3.69911504      99.27295237
H       -1.05534005       0.07795142      -4.15142345      99.27295237
H       -0.12021149      -1.46820283      -3.80359769      99.27295237
H        0.01369524      -1.36494517      -1.62084019      99.27295237
Rh       0.12235821       0.20936647      -1.53386998      99.27295237
O        2.35469031      -2.01984406      -0.09275617      99.27295237
C        3.68996882      -0.02003300      -1.16416812      99.27295237
C        2.26917148       0.29734439       1.33806205      99.27295237
O       -0.81749821      -0.56832814       1.59381735      99.27295237
C       -2.50936174       1.33093953       0.58283001      99.27295237
C       -2.64991069      -1.44272828      -0.31847930      99.27295237
P       -1.45401633      -0.10940240       0.10673723      99.27295237
P        2.07597804      -0.39111131      -0.36498758      99.27295237
C       -0.18472514       2.10584426      -1.60647058      99.27295237
O       -0.50476336       3.21381044      -1.69075286      99.27295237
C        1.30393946      -2.92387748       0.28702512      99.27295237
H        0.42553461      -2.34065342       0.60364181      99.27295237
C        1.79645813      -3.73863292       1.47571623      99.27295237
H        2.06376600      -3.08032012       2.31608725      99.27295237
H        2.68723321      -4.32505322       1.19845867      99.27295237
H        1.01423681      -4.43756819       1.81410432      99.27295237
C        0.92504245      -3.80107903      -0.90041703      99.27295237
H        0.56795394      -3.18052006      -1.73426771      99.27295237
H        1.79426515      -4.38357258      -1.24433565      99.27295237
H        0.11970139      -4.50157738      -0.62354833      99.27295237
H        3.64930916      -0.50669527      -2.15250754      99.27295237
H        3.68898749       1.06598604      -1.36093545      99.27295237
C        4.94055939      -0.45909861      -0.40628514      99.27295237
H        5.00791979       0.08573928       0.55119663      99.27295237
H        4.84201336      -1.52611065      -0.14785264      99.27295237
C        6.22527361      -0.23204996      -1.20071483      99.27295237
H        6.30830097       0.83836991      -1.46715248      99.27295237
H        6.16147661      -0.77598387      -2.16153479      99.27295237
C        7.48536444      -0.66963166      -0.45393676      99.27295237
H        7.54464674      -0.12366093       0.50547481      99.27295237
H        7.39158010      -1.73767483      -0.18527135      99.27295237
C        8.76598740      -0.44767231      -1.25589776      99.27295237
H        9.65931416      -0.77305132      -0.69938594      99.27295237
H        8.89710236       0.61839855      -1.50729179      99.27295237
H        8.74056911      -1.00758696      -2.20610881      99.27295237
H        1.42669261      -0.12668133       1.90290821      99.27295237
H        3.20389438      -0.07680740       1.78471220      99.27295237
C        2.19353485       1.82229531       1.36035109      99.27295237
H        3.03515077       2.25346661       0.78832161      99.27295237
H        1.27952278       2.13974595       0.83013612      99.27295237
C        2.18851614       2.41087580       2.77030849      99.27295237
H        3.10741544       2.10549235       3.30449271      99.27295237
H        1.34933162       1.97230756       3.33890176      99.27295237
C        2.06798625       3.93479443       2.78795362      99.27295237
H        2.90711880       4.37149811       2.21641827      99.27295237
H        1.15214992       4.22887754       2.24327993      99.27295237
C        2.04130530       4.52152824       4.19806862      99.27295237
H        1.94847155       5.61917353       4.18234777      99.27295237
H        2.96244502       4.27142811       4.75125313      99.27295237
H        1.19229186       4.12180853       4.77838087      99.27295237
C       -1.55159545      -0.72801876       2.82199407      99.27295237
H       -2.62900567      -0.61473024       2.62373018      99.27295237
C       -1.13329244       0.35114384       3.81459737      99.27295237
H       -1.30409646       1.35631609       3.40189600      99.27295237
H       -0.06540644       0.25848129       4.06503677      99.27295237
H       -1.71364319       0.25855446       4.74727011      99.27295237
C       -1.29933035      -2.13344502       3.35239506      99.27295237
H       -1.60937297      -2.89134502       2.61760879      99.27295237
H       -0.22817041      -2.27952337       3.56101370      99.27295237
H       -1.86171472      -2.30276990       4.28493404      99.27295237
H       -3.06598806       1.12476110       1.51091671      99.27295237
H       -1.80280900       2.14597774       0.81181484      99.27295237
C       -3.46395755       1.74590850      -0.53626531      99.27295237
H       -2.94151974       1.68086851      -1.50551105      99.27295237
H       -4.29837608       1.02505887      -0.59121937      99.27295237
C       -4.01913786       3.15779471      -0.36376619      99.27295237
H       -3.17466593       3.86965299      -0.32952479      99.27295237
H       -4.53291798       3.24209094       0.61258245      99.27295237
C       -4.97560215       3.55583620      -1.48697460      99.27295237
H       -4.44914579       3.45140195      -2.45274782      99.27295237
H       -5.81358862       2.83528566      -1.52143526      99.27295237
C       -5.51931810       4.97545195      -1.34630644      99.27295237
H       -6.19946051       5.23367357      -2.17352676      99.27295237
H       -4.70027637       5.71395683      -1.34233463      99.27295237
H       -6.07758141       5.09684944      -0.40255752      99.27295237
H       -2.99084640      -1.14408410      -1.32427657      99.27295237
H       -2.02182436      -2.33318043      -0.48380029      99.27295237
C       -3.84358025      -1.77001119       0.57230157      99.27295237
H       -3.50400829      -2.23633265       1.51050615      99.27295237
H       -4.37747860      -0.84763247       0.86011380      99.27295237
C       -4.81614828      -2.71641564      -0.12792069      99.27295237
H       -4.26846218      -3.62253737      -0.44694293      99.27295237
H       -5.17311764      -2.24042392      -1.05986404      99.27295237
C       -6.01010132      -3.11687422       0.73427898      99.27295237
H       -5.64175320      -3.58462238       1.66570401      99.27295237
H       -6.55064440      -2.20530510       1.04875338      99.27295237
C       -6.96428919      -4.06826830       0.01696257      99.27295237
H       -7.81905222      -4.34820223       0.65223020      99.27295237
H       -6.44617653      -4.99584007      -0.27939540      99.27295237
H       -7.36364889      -3.60802555      -0.90245253      99.27295237
