86
Properties=species:S:1:pos:R:3:energy:R:1 pbc="F F F"
C       -1.46953321      -0.14927331       3.21262383      83.87991499
H       -1.06719422       0.54297030       3.95543790      83.87991499
H       -2.48641109       0.08293620       2.88937092      83.87991499
C       -1.01082766      -1.47832680       3.19357753      83.87991499
H       -0.24732402      -1.82203233       3.89464092      83.87991499
H       -1.70275962      -2.26414442       2.87350178      83.87991499
H       -0.82547289      -1.57211792       1.00097072      83.87991499
Rh      -0.08028334      -0.27199429       1.51048744      83.87991499
C       -2.80770612      -0.19359896      -0.86401731      83.87991499
C       -2.77307534       2.14906645       1.01948524      83.87991499
C       -1.17493665       2.16975832      -1.43210876      83.87991499
C        2.68133068       0.37477723      -0.85724932      83.87991499
C        2.75149083      -2.20138597       0.66382188      83.87991499
C        0.73127878      -1.77015269      -1.60649669      83.87991499
P        1.55099249      -0.96722114      -0.10110214      83.87991499
P       -1.63741434       1.01986873       0.00070870      83.87991499
C        1.24172163       0.57141268       2.61205101      83.87991499
O        2.07504225       0.76602530       3.39374948      83.87991499
H       -2.09652281      -0.75476205      -1.49751735      83.87991499
C       -3.91620111       0.34029678      -1.78676403      83.87991499
H       -3.53394723       1.08735442      -2.49925375      83.87991499
H       -4.68022490       0.84703541      -1.17543936      83.87991499
C       -4.59800720      -0.80693263      -2.54886818      83.87991499
H       -5.39542532      -0.40625468      -3.19748998      83.87991499
H       -3.86080647      -1.28700531      -3.21903515      83.87991499
C       -5.16908789      -1.85700226      -1.59026861      83.87991499
H       -5.61561823      -2.69365120      -2.15364814      83.87991499
H       -5.98858690      -1.40143776      -1.00406027      83.87991499
C       -4.09382010      -2.36561131      -0.62736958      83.87991499
H       -3.32854676      -2.92529345      -1.19667590      83.87991499
H       -4.52479839      -3.07819366       0.09592732      83.87991499
C       -3.41078305      -1.21326065       0.11584897      83.87991499
H       -4.14642191      -0.70701671       0.76672542      83.87991499
H       -2.61842990      -1.60181367       0.76770741      83.87991499
H       -3.41493702       1.41088164       1.52930009      83.87991499
C       -1.98882627       2.91282058       2.09768367      83.87991499
H       -2.66527605       3.23550510       2.90608978      83.87991499
H       -1.18764329       2.30210018       2.52957392      83.87991499
H       -1.52609491       3.81972337       1.67910433      83.87991499
C       -3.68146396       3.12429786       0.26040769      83.87991499
H       -4.29998541       2.64263272      -0.50623763      83.87991499
H       -4.36233234       3.62115884       0.97233152      83.87991499
H       -3.09766436       3.92071676      -0.22702123      83.87991499
H       -2.11483121       2.66013432      -1.72899699      83.87991499
C       -0.19930926       3.25054669      -0.95536774      83.87991499
H        0.09497716       3.90215421      -1.79536819      83.87991499
H       -0.63483554       3.89068675      -0.17672563      83.87991499
H        0.71285719       2.80254340      -0.53728658      83.87991499
C       -0.62796861       1.46128654      -2.67449403      83.87991499
H       -1.30780482       0.69201195      -3.06761479      83.87991499
H       -0.46820164       2.20016003      -3.47794366      83.87991499
H        0.34246820       0.98617476      -2.47991180      83.87991499
H        2.04512215       0.82354367      -1.64012778      83.87991499
C        3.99724174      -0.07077628      -1.53139365      83.87991499
H        3.82421112      -0.84930795      -2.28404546      83.87991499
H        4.66122055      -0.50754547      -0.76714385      83.87991499
C        4.73340988       1.10858119      -2.18999767      83.87991499
H        5.66770983       0.74773127      -2.65362811      83.87991499
H        4.11521530       1.51337266      -3.01301813      83.87991499
C        5.03052711       2.22342205      -1.18571806      83.87991499
H        5.51802254       3.07836080      -1.68496990      83.87991499
H        5.74913645       1.85173011      -0.43187469      83.87991499
C        3.74589181       2.66656327      -0.48325646      83.87991499
H        3.08092761       3.15544534      -1.21923387      83.87991499
H        3.96762514       3.42536139       0.28598452      83.87991499
C        3.00312710       1.48631859       0.15776297      83.87991499
H        3.62235332       1.06631994       0.96947312      83.87991499
H        2.07888722       1.83756638       0.63288903      83.87991499
H        3.45430970      -1.51764166       1.17544985      83.87991499
C        2.05574870      -3.03930974       1.74364090      83.87991499
H        2.80413628      -3.60313344       2.32370067      83.87991499
H        1.47268522      -2.40484381       2.42139626      83.87991499
H        1.35771000      -3.76404285       1.29549968      83.87991499
C        3.54607081      -3.11713505      -0.27417693      83.87991499
H        4.09097862      -2.58126974      -1.05869639      83.87991499
H        4.28540516      -3.68499851       0.31495678      83.87991499
H        2.88681650      -3.85377216      -0.75741094      83.87991499
H       -0.03247131      -1.01556182      -1.84547675      83.87991499
C        1.55588782      -1.98394620      -2.88233209      83.87991499
H        0.90815067      -2.42293215      -3.66093707      83.87991499
H        1.95756173      -1.04549873      -3.29013538      83.87991499
H        2.39294362      -2.67910457      -2.73022556      83.87991499
C       -0.01577763      -3.05009556      -1.21772707      83.87991499
H       -0.61470741      -2.89504647      -0.31038851      83.87991499
H       -0.69579703      -3.34976935      -2.03224277      83.87991499
H        0.67481202      -3.88698268      -1.03572321      83.87991499
