60
Properties=species:S:1:pos:R:3:energy:R:1 pbc="F F F"
C        0.69268006      -4.32920647       0.33131984      46.50723781
H        0.33132106      -4.99771881      -0.45335647      46.50723781
H        1.75013947      -4.06260967       0.27366498      46.50723781
C        0.00634140      -4.27473450       1.54722512      46.50723781
H       -0.90030360      -4.85724211       1.72162926      46.50723781
H        0.54551435      -3.97769260       2.45078301      46.50723781
H       -0.18291758      -2.14170885       1.73150039      46.50723781
Rh      -0.49506286      -2.44216633       0.19308001      46.50723781
C        1.64871633       0.32343608       0.99466687      46.50723781
O        2.83649182      -1.89234126      -0.20518896      46.50723781
O        1.45305538      -0.17285950      -1.58000827      46.50723781
C       -1.83427131       0.64413357      -1.10090816      46.50723781
O       -3.53377771      -0.87314141       0.16899535      46.50723781
O       -1.67048728       0.41816235       1.50165224      46.50723781
P       -1.90331531      -0.63194185       0.24619189      46.50723781
P        1.39191425      -1.09460032      -0.18756139      46.50723781
C       -1.48921001      -3.26075816      -1.23622715      46.50723781
O       -2.16327691      -3.83659482      -1.97631562      46.50723781
H        0.69302475       0.87124223       0.97447270      46.50723781
H        1.70302010      -0.15656589       1.98402727      46.50723781
C        2.81953454       1.23851168       0.77455282      46.50723781
C        3.95548940       1.15663338       1.59446001      46.50723781
H        3.97423506       0.43374309       2.41444755      46.50723781
C        2.81690574       2.18625975      -0.26296383      46.50723781
H        1.94580078       2.26116824      -0.91503537      46.50723781
C        5.06679916       1.97541249       1.38349640      46.50723781
H        5.95283031       1.91625893       2.01856112      46.50723781
C        3.91865206       3.01171827      -0.48889044      46.50723781
H        3.92661023       3.74835849      -1.29466975      46.50723781
C        5.03442812       2.89237690       0.33682203      46.50723781
F        6.09705782       3.68326497       0.12216135      46.50723781
C        4.06411695      -1.36526525      -0.70484984      46.50723781
H        3.89952683      -0.46077445      -1.30843282      46.50723781
H        4.73902845      -1.11656952       0.12716916      46.50723781
H        4.53134203      -2.14028788      -1.33198977      46.50723781
C        1.13221598      -0.78822380      -2.81922078      46.50723781
H        1.90022779      -1.52677548      -3.10523582      46.50723781
H        0.15655461      -1.30108321      -2.76605248      46.50723781
H        1.09541404       0.00611133      -3.57776117      46.50723781
H       -0.76923907       0.85828120      -1.26959479      46.50723781
H       -2.20893216       0.13650332      -2.00389695      46.50723781
C       -2.60342240       1.91002762      -0.81382245      46.50723781
C       -3.99217272       1.97947443      -1.00863123      46.50723781
H       -4.52262211       1.10815763      -1.39609909      46.50723781
C       -1.94822788       3.04144168      -0.30333787      46.50723781
H       -0.86721736       3.01276112      -0.14584062      46.50723781
C       -4.70956421       3.13561058      -0.69610703      46.50723781
H       -5.79020023       3.19744778      -0.84048271      46.50723781
C       -2.64965534       4.20646572       0.01422905      46.50723781
H       -2.14761233       5.08979273       0.41421899      46.50723781
C       -4.02748203       4.23502541      -0.18152539      46.50723781
F       -4.71300459       5.34714079       0.13013475      46.50723781
C       -4.14975548      -1.88795471       0.94696498      46.50723781
H       -3.46712470      -2.74600744       1.07709694      46.50723781
H       -4.43290710      -1.49147773       1.93660462      46.50723781
H       -5.05563736      -2.21469927       0.41712859      46.50723781
C       -1.49700594      -0.02096254       2.83626270      46.50723781
H       -2.47194815      -0.20254382       3.31747866      46.50723781
H       -0.90640843      -0.95321071       2.86599374      46.50723781
H       -0.95954359       0.76783955       3.38036227      46.50723781
