94
Properties=species:S:1:pos:R:3:energy:R:1 pbc="F F F"
C        0.81411326       2.34090090      -3.04010749      51.88126567
H        0.74315566       1.91603661      -4.04485226      51.88126567
H       -0.11500689       2.75191283      -2.64089441      51.88126567
C        2.05389690       2.77779722      -2.56398535      51.88126567
H        2.96007228       2.70188069      -3.16788459      51.88126567
H        2.07337332       3.54413557      -1.78381276      51.88126567
H        1.71997845       1.80140138      -0.51278311      51.88126567
Rh       1.47928059       0.72777551      -1.65618932      51.88126567
O       -0.51842093       0.67291343       1.14279366      51.88126567
O       -1.39766586       2.11658597      -0.77807671      51.88126567
O       -1.57993352      -0.47778517      -0.81786323      51.88126567
O        3.39090061      -1.96734762      -1.28002656      51.88126567
O        4.06519747      -0.27172735       0.44337219      51.88126567
O        2.02670908      -1.56738305       0.83989698      51.88126567
P        2.73704243      -0.74338096      -0.44756240      51.88126567
P       -0.51195800       0.72199684      -0.50202250      51.88126567
C        1.64536250      -0.40959546      -3.21848273      51.88126567
O        1.87599719      -1.00362301      -4.17431498      51.88126567
C        0.40009907       1.42378032       1.97575784      51.88126567
H        1.38556147       1.41636324       1.48818159      51.88126567
C        0.49504301       0.68518621       3.29859734      51.88126567
H        0.87807417      -0.33067825       3.13936973      51.88126567
H       -0.49360803       0.62357253       3.78111815      51.88126567
H        1.18394709       1.21503842       3.97277117      51.88126567
C       -0.05295298       2.86938119       2.13520145      51.88126567
H       -0.14597176       3.37018752       1.16135359      51.88126567
H       -1.02482665       2.92633700       2.65108156      51.88126567
H        0.68845296       3.41662431       2.73778796      51.88126567
C       -2.76578403       2.23525333      -0.64776790      51.88126567
C       -3.40223718       2.10830402       0.59028274      51.88126567
H       -2.80991602       1.91025269       1.48161101      51.88126567
C       -3.51186204       2.48237991      -1.79928243      51.88126567
H       -2.99062729       2.58626366      -2.75284505      51.88126567
C       -4.79149818       2.18324733       0.65398687      51.88126567
H       -5.28543711       2.05427289       1.62094605      51.88126567
C       -4.90219116       2.56556034      -1.71661115      51.88126567
H       -5.48138285       2.74846482      -2.62588191      51.88126567
C       -5.56821918       2.40008140      -0.49479195      51.88126567
C       -7.07303286       2.41389537      -0.41555834      51.88126567
H       -7.42910910       2.99905062       0.44737282      51.88126567
H       -7.46750021       1.38916922      -0.29776466      51.88126567
H       -7.52216721       2.83973646      -1.32532656      51.88126567
C       -2.76743460      -0.84329480      -0.21632162      51.88126567
C       -3.89797163      -0.89589816      -1.02916038      51.88126567
H       -3.80389380      -0.61212772      -2.07772923      51.88126567
C       -2.83664918      -1.20574117       1.12776446      51.88126567
H       -1.93617189      -1.18701363       1.73637879      51.88126567
C       -5.11944628      -1.27552617      -0.48130569      51.88126567
H       -6.00516415      -1.30147362      -1.12174511      51.88126567
C       -4.06995535      -1.58302915       1.65993893      51.88126567
H       -4.12579203      -1.86533892       2.71520925      51.88126567
C       -5.23211908      -1.61532915       0.87522864      51.88126567
C       -6.56923819      -1.97796524       1.46840417      51.88126567
H       -7.19775724      -2.51664710       0.74210697      51.88126567
H       -7.12608957      -1.07424927       1.77363563      51.88126567
H       -6.45771170      -2.61197305       2.36109233      51.88126567
C        4.26665068      -2.97073984      -0.68674427      51.88126567
H        4.18140173      -2.89338779       0.40874720      51.88126567
C        5.69046211      -2.65291190      -1.11524594      51.88126567
H        5.97408104      -1.64939344      -0.76875490      51.88126567
H        5.77298737      -2.68454504      -2.21322370      51.88126567
H        6.39471102      -3.38526440      -0.68945628      51.88126567
C        3.78020859      -4.33838463      -1.13677108      51.88126567
H        2.75200009      -4.52350521      -0.79307443      51.88126567
H        3.80343723      -4.41422987      -2.23543167      51.88126567
H        4.43286753      -5.12319756      -0.72127533      51.88126567
C        4.03121996       0.92081302       1.13602364      51.88126567
C        3.96367359       0.90455610       2.52760863      51.88126567
H        3.97526264      -0.05485389       3.04735756      51.88126567
C        4.03152847       2.13249040       0.43964824      51.88126567
H        4.09685516       2.11859417      -0.64611769      51.88126567
C        3.86238194       2.11371326       3.22112322      51.88126567
H        3.82078505       2.10119629       4.31362915      51.88126567
C        3.88565040       3.32487416       1.14246297      51.88126567
H        3.83116603       4.26505470       0.58652252      51.88126567
C        3.78773856       3.33887076       2.54245424      51.88126567
C        3.58775735       4.63976336       3.27659774      51.88126567
H        2.56502533       5.02640820       3.12167788      51.88126567
H        4.28105736       5.41533279       2.91406703      51.88126567
H        3.73890638       4.52326679       4.35969448      51.88126567
C        0.94917315      -2.42614627       0.79936653      51.88126567
C        0.45866388      -2.88917804       2.02754641      51.88126567
H        0.95516062      -2.57898283       2.94820333      51.88126567
C        0.34574586      -2.86620402      -0.38366613      51.88126567
H        0.72349477      -2.54234171      -1.35146308      51.88126567
C       -0.64870799      -3.73773003       2.06806207      51.88126567
H       -1.02651429      -4.07575560       3.03781128      51.88126567
C       -0.76571888      -3.70981884      -0.32230487      51.88126567
H       -1.24082601      -4.01893330      -1.25724840      51.88126567
C       -1.30022192      -4.14871454       0.89574075      51.88126567
C       -2.56350946      -4.97105265       0.94015044      51.88126567
H       -2.64634895      -5.54609489       1.87563920      51.88126567
H       -2.62051082      -5.67853355       0.09792900      51.88126567
H       -3.44959641      -4.31459379       0.87681830      51.88126567
