56
Properties=species:S:1:pos:R:3:energy:R:1 pbc="F F F"
C        3.98879457       0.38115761      -0.69599509      63.49088770
H        4.27957487      -0.38507983      -1.41946721      63.49088770
H        3.95259452       1.39234352      -1.10987508      63.49088770
C        4.25644970       0.17980365       0.66981888      63.49088770
H        4.72292185      -0.73781747       1.03240764      63.49088770
H        4.41847229       1.05267227       1.30817008      63.49088770
H        2.17163825       0.87855041       1.36777794      63.49088770
Rh       2.06067514      -0.21680115       0.20098868      63.49088770
O       -0.40872097       2.05359912       0.30607471      63.49088770
C        1.71626008       3.14139080      -0.99958020      63.49088770
C       -0.08740225       1.35175323      -2.33724570      63.49088770
O       -1.10997343      -1.12220943       0.25914106      63.49088770
C        0.29524136      -2.84419179       1.84574699      63.49088770
C       -0.42465562      -0.22067891       2.77234030      63.49088770
P        0.21676159      -1.08950996       1.29285014      63.49088770
P        0.80311841       1.55759561      -0.73860008      63.49088770
C        2.35297823      -1.94937181      -0.58481026      63.49088770
O        2.65225601      -3.03684449      -0.84252822      63.49088770
C       -1.32887638       3.10597968       0.03170809      63.49088770
H       -1.29955530       3.79560876       0.89469612      63.49088770
H       -1.02102184       3.69018316      -0.85269374      63.49088770
C       -2.74704909       2.58281589      -0.16278575      63.49088770
H       -3.39794803       3.44672441      -0.39398998      63.49088770
H       -2.77222633       1.92617583      -1.05008543      63.49088770
C       -3.29027033       1.82715499       1.04965043      63.49088770
H       -3.22113919       2.47504234       1.94256783      63.49088770
H       -2.62514877       0.97294939       1.23814714      63.49088770
C       -4.72956181       1.34614825       0.87255013      63.49088770
H       -5.42243767       2.19112444       0.72159034      63.49088770
H       -4.82586622       0.68387842      -0.00317060      63.49088770
H       -5.07975912       0.78344899       1.75320876      63.49088770
H        2.55361319       2.97178149      -1.69223011      63.49088770
H        1.08510053       3.94825268      -1.40260756      63.49088770
H        2.12937403       3.45237780      -0.02793155      63.49088770
H       -0.63779056       2.24795842      -2.66549706      63.49088770
H        0.66035944       1.08504593      -3.09984350      63.49088770
H       -0.77813649       0.50457144      -2.21766949      63.49088770
C       -2.36127162      -1.73312938       0.57353473      63.49088770
H       -2.20850658      -2.75734091       0.95854115      63.49088770
H       -2.88343358      -1.15892029       1.36025465      63.49088770
C       -3.23095965      -1.79444301      -0.67584044      63.49088770
H       -4.23000622      -2.16039038      -0.37267438      63.49088770
H       -3.38170838      -0.76956743      -1.05690634      63.49088770
C       -2.66817904      -2.68270731      -1.78626859      63.49088770
H       -2.56118059      -3.71440673      -1.40344131      63.49088770
H       -1.64906430      -2.33937955      -2.02828479      63.49088770
C       -3.53190875      -2.69081044      -3.04777241      63.49088770
H       -4.54896593      -3.06633735      -2.84138155      63.49088770
H       -3.63625741      -1.67563319      -3.46693873      63.49088770
H       -3.09522128      -3.32985997      -3.83190584      63.49088770
H       -0.59624362      -3.16342974       2.40714169      63.49088770
H        0.42037421      -3.48579812       0.96075952      63.49088770
H        1.18522298      -2.95892501       2.47998929      63.49088770
H       -0.58997488       0.82700467       2.48799109      63.49088770
H       -1.35338187      -0.66694164       3.16153145      63.49088770
H        0.35591200      -0.26111132       3.54610491      63.49088770
