56
Properties=species:S:1:pos:R:3:energy:R:1 pbc="F F F"
C       -4.19907284      -0.98025870       1.70538223      47.37643587
H       -4.06396294      -0.57781106       2.71263385      47.37643587
H       -4.88504934      -0.40614456       1.07969213      47.37643587
C       -3.93104076      -2.32702708       1.45120490      47.37643587
H       -3.60258412      -2.99922276       2.24547815      47.37643587
H       -4.40210295      -2.80552411       0.58991909      47.37643587
H       -2.66920781      -1.88632953      -0.51600009      47.37643587
Rh      -2.17503667      -1.04248762       0.73996437      47.37643587
O       -1.75249052       1.62876987      -1.55769134      47.37643587
O       -3.72275186       0.23748265      -1.99246085      47.37643587
O       -3.86202288       1.83427405      -0.11522752      47.37643587
O        1.10175633      -1.24043512       0.94150341      47.37643587
O        0.18762863      -3.14094615      -0.53887206      47.37643587
O        0.22881916      -0.85503221      -1.48728323      47.37643587
P       -0.15694554      -1.59150505      -0.09490646      47.37643587
P       -2.84523129       0.69197613      -0.67782104      47.37643587
C       -1.42379725      -0.74425143       2.50625372      47.37643587
O       -0.99234951      -0.81272793       3.56928492      47.37643587
C       -0.54189301       2.03865933      -1.08658135      47.37643587
C        0.47316614       2.24072766      -2.02749205      47.37643587
H        0.25520393       2.04356384      -3.07860446      47.37643587
C       -0.29763675       2.26826859       0.27126655      47.37643587
H       -1.08564484       2.10786176       1.00645459      47.37643587
C        1.73133028       2.67373800      -1.61972773      47.37643587
H        2.52987504       2.82871032      -2.34648991      47.37643587
C        0.96389663       2.69851398       0.68302739      47.37643587
H        1.16397810       2.87096429       1.74162412      47.37643587
C        1.96861351       2.90445089      -0.26181230      47.37643587
Cl       3.54777098       3.45397782       0.26113757      47.37643587
C       -3.16612601      -0.63593727      -2.96432471      47.37643587
H       -2.32742786      -0.15205896      -3.49022174      47.37643587
H       -2.80366993      -1.56797898      -2.49805236      47.37643587
H       -3.96250772      -0.87824261      -3.68170357      47.37643587
C       -4.39002943       2.86054039      -0.96244615      47.37643587
H       -3.57625222       3.39284444      -1.47926927      47.37643587
H       -5.07142305       2.43293834      -1.71316278      47.37643587
H       -4.93629503       3.56083989      -0.31640583      47.37643587
C        2.45301414      -1.21761763       0.65982795      47.37643587
C        3.15650749      -0.04327008       0.94211471      47.37643587
H        2.62297916       0.80151218       1.37079120      47.37643587
C        3.12997198      -2.32668185       0.13781369      47.37643587
H        2.58474064      -3.24583507      -0.06897052      47.37643587
C        4.51916361       0.04884085       0.66134417      47.37643587
H        5.05790424       0.97607708       0.85661674      47.37643587
C        4.49422312      -2.23755503      -0.14686647      47.37643587
H        5.02901936      -3.09035921      -0.56770813      47.37643587
C        5.18059206      -1.04694963       0.10312403      47.37643587
Cl       6.88178587      -0.92738402      -0.28379208      47.37643587
C       -0.21815756      -4.18501425       0.34060094      47.37643587
H       -1.23547280      -3.99119020       0.72004503      47.37643587
H       -0.20232871      -5.12124920      -0.23263456      47.37643587
H        0.47387034      -4.26301003       1.19659948      47.37643587
C        1.30856788      -1.15257192      -2.37559032      47.37643587
H        2.23402476      -0.66426128      -2.03801227      47.37643587
H        1.46670794      -2.23739100      -2.45146203      47.37643587
H        1.02888119      -0.75047541      -3.35956860      47.37643587
