104
Properties=species:S:1:pos:R:3:energy:R:1 pbc="F F F"
C        0.95632118       0.77592504      -3.62773895      83.61146975
H        0.13154130       1.25525355      -4.16071272      83.61146975
H        1.81232500       1.43218815      -3.43918586      83.61146975
C        1.16307127      -0.60865813      -3.78290081      83.61146975
H        0.49235639      -1.21703684      -4.39459229      83.61146975
H        2.18417192      -1.00165546      -3.72308898      83.61146975
H        0.93521035      -1.44819212      -2.04984951      83.61146975
Rh       0.09913012      -0.06470864      -1.76775289      83.61146975
C        2.45410705       2.56138587      -0.95223916      83.61146975
C        2.28300595       0.80350596       1.28059828      83.61146975
C        3.59829330      -0.11877716      -1.10730982      83.61146975
C       -1.08313715      -0.45144483       1.69025111      83.61146975
C       -2.71394682      -1.64306414      -0.30704170      83.61146975
C       -0.13921915      -2.84204817       0.25305048      83.61146975
P       -0.94184875      -1.19927287      -0.03274292      83.61146975
P        2.04884338       0.76686567      -0.57486415      83.61146975
C       -1.54578984       0.81132495      -2.13709903      83.61146975
O       -2.59917355       1.20472670      -2.42576528      83.61146975
H        3.36737704       2.85476446      -0.41363731      83.61146975
H        2.67472720       2.61023664      -2.02896070      83.61146975
C        1.30652714       3.46713901      -0.60149306      83.61146975
C        0.21203324       3.60927391      -1.47210312      83.61146975
H        0.21184263       3.08122897      -2.42364335      83.61146975
C        1.26648629       4.13659763       0.63056713      83.61146975
H        2.10515809       4.03521156       1.32439065      83.61146975
C       -0.88560277       4.39951992      -1.13214660      83.61146975
H       -1.74501777       4.49695635      -1.79781139      83.61146975
C        0.17711905       4.93634605       0.98770320      83.61146975
H        0.13900264       5.46230602       1.94302261      83.61146975
C       -0.88192290       5.05740976       0.09386657      83.61146975
F       -1.94525802       5.81205702       0.43377358      83.61146975
H        1.39358640       1.30539191       1.69528592      83.61146975
H        3.13693595       1.46028996       1.50949943      83.61146975
C        2.47897983      -0.56958556       1.92725122      83.61146975
H        1.70700145      -1.26114535       1.55978549      83.61146975
H        3.44144750      -1.00162935       1.60249472      83.61146975
C        2.43750167      -0.57282591       3.46605444      83.61146975
H        1.48385513      -0.10364979       3.77467513      83.61146975
C        2.44505405      -2.01157665       3.99442124      83.61146975
H        1.60092747      -2.59382677       3.58963680      83.61146975
H        2.37677121      -2.03743839       5.09395933      83.61146975
H        3.37527037      -2.53147936       3.70666718      83.61146975
C        3.58179402       0.24144989       4.07890701      83.61146975
H        3.54056668       0.21874468       5.17980814      83.61146975
H        3.55022311       1.29736733       3.76867843      83.61146975
H        4.55989695      -0.16992371       3.77349758      83.61146975
H        3.56642771      -0.15772738      -2.20868635      83.61146975
H        3.43673730      -1.15880716      -0.77991205      83.61146975
C        4.94725847       0.41569835      -0.63317710      83.61146975
H        5.11512709       1.41028094      -1.07895911      83.61146975
H        4.93408585       0.57144642       0.46042588      83.61146975
C        6.15109110      -0.48207310      -0.97443092      83.61146975
H        6.10924196      -0.70157826      -2.05861402      83.61146975
C        7.45947170       0.26265952      -0.69139534      83.61146975
H        7.51859856       1.20153761      -1.26553595      83.61146975
H        8.33834267      -0.34935325      -0.95021349      83.61146975
H        7.53595066       0.52143991       0.37905851      83.61146975
C        6.11227369      -1.81650329      -0.22097668      83.61146975
H        6.98137236      -2.44286847      -0.47925889      83.61146975
H        5.20705223      -2.40025330      -0.44971511      83.61146975
H        6.13679075      -1.64852023       0.87017304      83.61146975
H       -1.25647950      -1.28375506       2.38842845      83.61146975
H       -0.11334281      -0.01214094       1.94758737      83.61146975
C       -2.18264580       0.56884801       1.84462845      83.61146975
C       -2.07934690       1.84337187       1.26137173      83.61146975
H       -1.19199657       2.10159326       0.68052936      83.61146975
C       -3.34383011       0.26182571       2.57353020      83.61146975
H       -3.44272566      -0.71989036       3.04542232      83.61146975
C       -3.10308146       2.78301239       1.40150380      83.61146975
H       -3.03137517       3.78017259       0.96878767      83.61146975
C       -4.37849665       1.18932271       2.71980214      83.61146975
H       -5.28242922       0.95983952       3.28803825      83.61146975
C       -4.24182510       2.44116402       2.12676835      83.61146975
F       -5.22795248       3.34187889       2.26452637      83.61146975
H       -3.24997354      -0.68679720      -0.41378036      83.61146975
H       -3.11418080      -2.12457132       0.60001957      83.61146975
C       -2.89800739      -2.50967550      -1.54961801      83.61146975
H       -2.19518685      -2.15781021      -2.32444143      83.61146975
H       -2.61195612      -3.55264878      -1.31956780      83.61146975
C       -4.31692505      -2.49392939      -2.13178945      83.61146975
H       -4.54056072      -1.44525790      -2.40426278      83.61146975
C       -4.35832548      -3.33689117      -3.40857124      83.61146975
H       -3.61455202      -2.98195076      -4.14049101      83.61146975
H       -5.34994793      -3.30326152      -3.88721514      83.61146975
H       -4.12743139      -4.39329910      -3.18523884      83.61146975
C       -5.36797476      -2.95707035      -1.11842549      83.61146975
H       -6.37505722      -2.96832132      -1.56565857      83.61146975
H       -5.40556240      -2.29848909      -0.23617804      83.61146975
H       -5.14733982      -3.98016834      -0.76520914      83.61146975
H        0.93923426      -2.64969182       0.35563138      83.61146975
H       -0.24905080      -3.32468581      -0.72836727      83.61146975
C       -0.64424807      -3.74286056       1.37309194      83.61146975
H       -0.42866337      -3.27945733       2.35113358      83.61146975
H       -1.74293840      -3.84701371       1.31806517      83.61146975
C       -0.01509024      -5.14766598       1.34979355      83.61146975
H        1.08391738      -5.01460171       1.36688757      83.61146975
C       -0.41626272      -5.93536758       2.59973907      83.61146975
H       -0.12310553      -5.40568686       3.52085042      83.61146975
H        0.05633341      -6.93044233       2.61574960      83.61146975
H       -1.50943232      -6.08397913       2.63226652      83.61146975
C       -0.37803659      -5.92117596       0.07695471      83.61146975
H        0.07616080      -6.92462158       0.08065078      83.61146975
H       -0.03469534      -5.40914345      -0.83487552      83.61146975
H       -1.47181201      -6.04809380      -0.00305848      83.61146975
