54
Properties=species:S:1:pos:R:3:energy:R:1 pbc="F F F"
C        1.70161068      -2.64348125       0.11369251      61.55246657
H        1.89096439      -3.03801799      -0.88808388      61.55246657
H        2.59601402      -2.27855897       0.62507355      61.55246657
C        0.61732835      -3.14443040       0.86342627      61.55246657
H       -0.04926901      -3.90551639       0.45284441      61.55246657
H        0.70612431      -3.17176461       1.95350051      61.55246657
H        0.07658932      -1.04379094       1.59910357      61.55246657
Rh       0.15242635      -1.10275483       0.00545723      61.55246657
C        2.08021307       1.41354287       1.82751834      61.55246657
C        3.46803832       0.28248346      -0.43184108      61.55246657
C        1.41556740       2.28748512      -0.82994652      61.55246657
C       -2.04686069       1.44529974      -1.37062454      61.55246657
C       -3.34890866      -0.70196301       0.11420079      61.55246657
C       -1.85666215       1.38043594       1.54827476      61.55246657
P       -1.77018332       0.25970450       0.06434567      61.55246657
P        1.74925494       0.71460664       0.12611365      61.55246657
C       -0.43094701      -1.80716169      -1.68525469      61.55246657
O       -0.96327084      -2.40481472      -2.52286649      61.55246657
H        1.18983483       2.00944185       2.09211278      61.55246657
C        2.33132839       0.35158312       2.89766765      61.55246657
H        3.24277544      -0.23123360       2.68783021      61.55246657
H        1.48871291      -0.35458663       2.94070077      61.55246657
H        2.92650151       2.11930966       1.77375019      61.55246657
H        2.45310736       0.81197572       3.89180756      61.55246657
H        3.79931188      -0.54956627       0.20914751      61.55246657
C        3.51185369      -0.13252880      -1.90186179      61.55246657
H        3.26048899       0.71017671      -2.56644416      61.55246657
H        2.78456402      -0.93512177      -2.09816289      61.55246657
H        4.14849043       1.12618887      -0.22929953      61.55246657
H        4.51337147      -0.49236715      -2.18683577      61.55246657
H        0.50055128       2.71018410      -0.38324851      61.55246657
C        2.51121736       3.35249162      -0.88793856      61.55246657
H        3.42341590       2.97527647      -1.37524986      61.55246657
H        2.79183912       3.71126175       0.11468635      61.55246657
H        1.12866688       1.96692002      -1.84431255      61.55246657
H        2.17190814       4.22809362      -1.46625006      61.55246657
H       -1.55211139       0.99227184      -2.24410295      61.55246657
C       -3.48353004       1.84183109      -1.73547041      61.55246657
H       -4.02196932       2.30444288      -0.89548045      61.55246657
H       -4.07623720       0.97907418      -2.07413077      61.55246657
H       -1.46093714       2.34845519      -1.13542306      61.55246657
H       -3.47859836       2.57474875      -2.56038523      61.55246657
H       -3.40028930      -1.21395254      -0.86168998      61.55246657
C       -3.33672094      -1.71747911       1.25334120      61.55246657
H       -3.33109498      -1.21545875       2.23471189      61.55246657
H       -2.42712522      -2.33511448       1.19352615      61.55246657
H       -4.21965265      -0.03033873       0.17373994      61.55246657
H       -4.22027874      -2.37253904       1.21265543      61.55246657
H       -0.98757964       2.05304694       1.45571589      61.55246657
C       -3.13068724       2.18825889       1.79663253      61.55246657
H       -4.02646112       1.54806817       1.81738830      61.55246657
H       -3.28950715       2.96246171       1.03059804      61.55246657
H       -1.62973022       0.72779077       2.40473914      61.55246657
H       -3.07573867       2.70173097       2.77075100      61.55246657
