92
Properties=species:S:1:pos:R:3:energy:R:1 pbc="F F F"
C       -1.36624420      -3.92625785       0.02151197      50.98618690
H       -1.37660825      -4.58484364      -0.84880668      50.98618690
H       -0.66450167      -4.23223972       0.80346465      50.98618690
C       -2.52970529      -3.21461964       0.38827124      50.98618690
H       -3.43115520      -3.27034926      -0.22618613      50.98618690
H       -2.72903967      -3.02625990       1.44667625      50.98618690
H       -1.95569730      -1.36174476       0.49871543      50.98618690
Rh      -0.98843479      -1.86407697      -0.68618166      50.98618690
C        2.05537033      -3.38473678       0.50772178      50.98618690
O        2.10171866      -0.73821884      -0.12409872      50.98618690
O        1.02631474      -1.57395375       2.13071299      50.98618690
C        0.43246675       0.80277300      -2.62879539      50.98618690
O       -2.03299737       1.22307992      -1.70088291      50.98618690
O       -0.11320180       1.20142174       0.03836088      50.98618690
P       -0.69632983       0.32730031      -1.25252497      50.98618690
P        1.00964379      -1.87688339       0.46303910      50.98618690
C       -1.44042432      -2.32859063      -2.51444745      50.98618690
O       -1.93646753      -2.50973034      -3.54317236      50.98618690
H        2.95515561      -3.19706678       1.11366153      50.98618690
H        1.46357882      -4.14863110       1.03796279      50.98618690
C        2.40085912      -3.84796929      -0.91037303      50.98618690
H        3.01293063      -3.07358050      -1.40309918      50.98618690
H        1.46975410      -3.91354632      -1.49888444      50.98618690
C        3.13592410      -5.18574381      -0.93561333      50.98618690
H        4.08423233      -5.13362408      -0.37551558      50.98618690
H        2.52399087      -5.98327160      -0.48159477      50.98618690
H        3.37144375      -5.49080992      -1.96775198      50.98618690
C        3.43467975      -0.58872396       0.16830710      50.98618690
C        4.29462194      -0.32767773      -0.90587920      50.98618690
H        3.88002586      -0.29614595      -1.91559136      50.98618690
C        3.94185781      -0.62676662       1.47263682      50.98618690
H        3.26838970      -0.82147282       2.30642676      50.98618690
C        5.65226173      -0.11043724      -0.67419034      50.98618690
H        6.31154490       0.09580650      -1.52239978      50.98618690
C        5.30746269      -0.41517356       1.68318248      50.98618690
H        5.69413996      -0.44732258       2.70582104      50.98618690
C        6.18812752      -0.15584521       0.62327957      50.98618690
C        7.66462421       0.04125321       0.85997242      50.98618690
H        7.87016678       0.34906468       1.89643610      50.98618690
H        8.08312798       0.80636758       0.18712308      50.98618690
H        8.22567654      -0.89245176       0.67749900      50.98618690
C        0.08192932      -0.73532432       2.69536066      50.98618690
C       -1.15764153      -1.24675417       3.08404469      50.98618690
H       -1.35018909      -2.31344199       2.96620679      50.98618690
C        0.35588264       0.62251687       2.86337090      50.98618690
H        1.32424724       1.01761317       2.55411887      50.98618690
C       -2.13432574      -0.39169836       3.59716654      50.98618690
H       -3.10861111      -0.80129182       3.87923598      50.98618690
C       -0.62629366       1.46838367       3.38178778      50.98618690
H       -0.40779087       2.53458667       3.48713875      50.98618690
C       -1.89537418       0.98412120       3.73742056      50.98618690
C       -2.98349881       1.91659808       4.20920849      50.98618690
H       -3.69280267       1.40578711       4.87885714      50.98618690
H       -3.56465387       2.30496693       3.35366750      50.98618690
H       -2.57184601       2.78555274       4.74519157      50.98618690
H        1.44017529       0.70031273      -2.19273019      50.98618690
H        0.34182394      -0.00385865      -3.37527299      50.98618690
C        0.24353242       2.17656279      -3.29060912      50.98618690
H        0.32298288       2.97397757      -2.53776693      50.98618690
H       -0.77788413       2.24106073      -3.69564915      50.98618690
C        1.26517892       2.43316531      -4.40138483      50.98618690
H        2.29718661       2.42892480      -4.01148701      50.98618690
H        1.20557284       1.67065525      -5.19620419      50.98618690
H        1.09483695       3.41611576      -4.87083054      50.98618690
C       -3.24659514       0.99075747      -1.08840501      50.98618690
C       -3.34396577       0.81735021       0.29572091      50.98618690
H       -2.46072626       0.90299714       0.92714518      50.98618690
C       -4.37827253       0.88646626      -1.89752638      50.98618690
H       -4.27111101       1.02736819      -2.97496724      50.98618690
C       -4.58007908       0.49108133       0.85468978      50.98618690
H       -4.63643837       0.31346193       1.93162000      50.98618690
C       -5.60994673       0.58529109      -1.31751859      50.98618690
H       -6.49398422       0.50464982      -1.95613015      50.98618690
C       -5.72936869       0.36050707       0.06449319      50.98618690
C       -7.04728079      -0.04560681       0.67204887      50.98618690
H       -7.06335497       0.14329638       1.75608015      50.98618690
H       -7.23703098      -1.12320113       0.52142018      50.98618690
H       -7.88852692       0.49923953       0.21563391      50.98618690
C        0.31946415       2.51070547       0.01380220      50.98618690
C       -0.60566258       3.55937600       0.03555426      50.98618690
H       -1.67196214       3.33248925       0.04011706      50.98618690
C        1.69076741       2.78405190       0.00883042      50.98618690
H        2.40227818       1.95770431      -0.00194797      50.98618690
C       -0.15053727       4.87883425       0.02936718      50.98618690
H       -0.88036644       5.69375324       0.03507342      50.98618690
C        2.12798262       4.11213589       0.00503298      50.98618690
H        3.20214343       4.31914186      -0.00642788      50.98618690
C        1.22074294       5.18320179       0.01210224      50.98618690
C        1.69627643       6.61585665       0.03403899      50.98618690
H        1.01691091       7.27535248      -0.52878517      50.98618690
H        2.70365000       6.71674871      -0.39816916      50.98618690
H        1.74348533       7.00619698       1.06634200      50.98618690
