74
Properties=species:S:1:pos:R:3:energy:R:1 pbc="F F F"
C        0.77706802      -3.79016638       0.35933062      37.24838253
H        0.59081006      -4.61713457      -0.33015755      37.24838253
H        1.81566513      -3.45929456       0.39576575      37.24838253
C       -0.05832434      -3.61798382       1.47656357      37.24838253
H       -0.90058249      -4.28598642       1.66478682      37.24838253
H        0.35526246      -3.13459516       2.36699700      37.24838253
H       -0.14465125      -1.44457746       1.19919777      37.24838253
Rh      -0.53355396      -2.09864426      -0.17364569      37.24838253
C        2.15585256      -0.86078566      -2.30305481      37.24838253
O        0.72175443       0.93082654      -0.80949819      37.24838253
O        2.39956188      -0.59199059       0.41811618      37.24838253
C       -2.73007369       0.16093959      -1.89540410      37.24838253
O       -3.67212558      -1.18219209       0.35117123      37.24838253
O       -2.12503672       0.88585138       0.54777753      37.24838253
P       -2.24640846      -0.57021582      -0.26097652      37.24838253
P        1.19190645      -0.68551034      -0.74644786      37.24838253
C       -1.42372954      -3.23884368      -1.46636307      37.24838253
O       -2.04757214      -3.99090576      -2.07809329      37.24838253
H        2.69403958      -1.81874239      -2.21324539      37.24838253
C        1.20579338      -0.86985219      -3.50028038      37.24838253
H        0.66208440       0.08491325      -3.58298302      37.24838253
H        0.45278469      -1.66687655      -3.39683151      37.24838253
H        2.91268849      -0.06579065      -2.37810302      37.24838253
H        1.75673795      -1.03076530      -4.43865252      37.24838253
C        1.60642481       1.98654997      -0.78487247      37.24838253
C        2.02200866       2.58484769      -1.97873271      37.24838253
H        1.64673889       2.20412111      -2.92954135      37.24838253
C        2.07519078       2.46898341       0.44260803      37.24838253
H        1.75700748       1.97932005       1.35948825      37.24838253
C        2.91169000       3.66243815      -1.94869804      37.24838253
H        3.25665379       4.14318657      -2.86591005      37.24838253
C        2.95234227       3.55258226       0.47937298      37.24838253
H        3.32878399       3.94604850       1.42566037      37.24838253
C        3.36465406       4.13346386      -0.71859622      37.24838253
F        4.21473360       5.17028713      -0.68689966      37.24838253
C        3.74808764      -0.80466831       0.23755881      37.24838253
C        4.59603310       0.21785629      -0.20298330      37.24838253
H        4.19024563       1.20460606      -0.41789228      37.24838253
C        4.27195501      -2.06476259       0.54457206      37.24838253
H        3.60159445      -2.84134269       0.91404027      37.24838253
C        5.96147108      -0.03047176      -0.35654572      37.24838253
H        6.64255190       0.75062722      -0.69902742      37.24838253
C        5.63382483      -2.31945658       0.38814700      37.24838253
H        6.05754805      -3.29943776       0.61423790      37.24838253
C        6.46284199      -1.29711592      -0.06707298      37.24838253
F        7.77238464      -1.53790545      -0.22671404      37.24838253
H       -3.29051089      -0.63108504      -2.42174411      37.24838253
C       -3.48890233       1.49358380      -1.91499674      37.24838253
H       -2.92009687       2.27552176      -1.39344013      37.24838253
H       -4.47591829       1.42285335      -1.43899703      37.24838253
H       -1.77283442       0.26535833      -2.43156409      37.24838253
H       -3.64417005       1.82100534      -2.95649314      37.24838253
C       -4.87506008      -0.51172429       0.34448060      37.24838253
C       -5.86042738      -0.91259485      -0.56083685      37.24838253
H       -5.64404631      -1.73204458      -1.24866068      37.24838253
C       -5.11428452       0.52903575       1.24695659      37.24838253
H       -4.33252144       0.82378292       1.94677877      37.24838253
C       -7.09541750      -0.26341501      -0.57522112      37.24838253
H       -7.88574362      -0.55628741      -1.26857233      37.24838253
C       -6.34599686       1.18335593       1.23232853      37.24838253
H       -6.56238413       2.00078988       1.92240953      37.24838253
C       -7.32033443       0.77894932       0.32164216      37.24838253
F       -8.50701714       1.40445423       0.31340891      37.24838253
C       -1.40944695       1.11443627       1.69218481      37.24838253
C       -0.93727070       2.41222024       1.90680707      37.24838253
H       -1.17613459       3.19136763       1.18118775      37.24838253
C       -1.15068543       0.10597023       2.62692952      37.24838253
H       -1.57707834      -0.88414747       2.48959756      37.24838253
C       -0.14785776       2.68685579       3.02408934      37.24838253
H        0.23676121       3.69012833       3.21483350      37.24838253
C       -0.31004393       0.36297855       3.70920467      37.24838253
H       -0.03601423      -0.43132058       4.40518141      37.24838253
C        0.19129942       1.64790559       3.88897276      37.24838253
F        1.00929475       1.89557624       4.92453003      37.24838253
