50
Properties=species:S:1:pos:R:3:energy:R:1 pbc="F F F"
C       -3.22993779      -0.06488781      -0.80442768      58.26337196
H       -3.96875453      -0.68726981      -0.29646000      58.26337196
H       -3.35235524       1.01167595      -0.65502089      58.26337196
C       -2.63376331      -0.53153431      -1.99280369      58.26337196
H       -2.84664202      -1.53100276      -2.37875772      58.26337196
H       -2.35812497       0.19013120      -2.76865864      58.26337196
H       -0.71955967      -0.42779392      -1.67848444      58.26337196
Rh      -1.21998954      -0.75867707      -0.18217674      58.26337196
O       -0.26297542       2.68693542       0.11631957      58.26337196
C       -2.11184788       2.13588405       1.88696647      58.26337196
C        0.52974313       1.26483881       2.28108954      58.26337196
O        2.09651423      -0.42352226      -0.05577592      58.26337196
C        1.35163414      -2.53046274       1.50894833      58.26337196
C        1.33704269      -2.74023890      -1.35291219      58.26337196
P        0.89073336      -1.58042490      -0.00477974      58.26337196
P       -0.75660843       1.31465018       0.95314550      58.26337196
C       -2.00343776      -2.29489303       0.67568690      58.26337196
O       -2.45349216      -3.31951094       0.97620124      58.26337196
C        0.57525653       2.56392097      -1.04566240      58.26337196
H        1.24611342       1.69708717      -0.91063273      58.26337196
C        1.40452600       3.83753872      -1.14174104      58.26337196
H        2.00416160       3.99591041      -0.23214634      58.26337196
H        0.74451149       4.71050119      -1.27516353      58.26337196
H        2.08403778       3.78589272      -2.00832796      58.26337196
C       -0.28159034       2.34233356      -2.28559589      58.26337196
H       -0.89436340       1.44684410      -2.14475942      58.26337196
H       -0.94328845       3.20489764      -2.46343613      58.26337196
H        0.34703079       2.18039751      -3.17642903      58.26337196
H       -2.43282509       1.47500992       2.70665407      58.26337196
H       -1.75659990       3.09463596       2.29715085      58.26337196
H       -2.97172141       2.32313681       1.22882175      58.26337196
H        0.22065794       0.55010796       3.06055117      58.26337196
H        1.47626173       0.92204428       1.84354198      58.26337196
H        0.66655761       2.26317143       2.72610378      58.26337196
C        3.50456238      -0.71933532      -0.12524679      58.26337196
H        3.65520525      -1.81096065      -0.04840836      58.26337196
C        4.21739483      -0.05625520       1.04798996      58.26337196
H        3.82794595      -0.42247522       2.00968432      58.26337196
H        4.08686543       1.03695393       1.01441586      58.26337196
H        5.29758072      -0.27348363       1.00974905      58.26337196
C        4.02957916      -0.24550104      -1.47449863      58.26337196
H        3.48826385      -0.73573983      -2.29688644      58.26337196
H        3.89287162       0.84308451      -1.57392550      58.26337196
H        5.10278463      -0.47250870      -1.57892656      58.26337196
H        2.37785387      -2.92777729       1.45630908      58.26337196
H        1.26408505      -1.87288094       2.38626266      58.26337196
H        0.64894056      -3.36736298       1.63380313      58.26337196
H        1.18558764      -2.20782614      -2.30199122      58.26337196
H        2.36159682      -3.13699627      -1.29368055      58.26337196
H        0.61455417      -3.56851315      -1.30928731      58.26337196
