66
Properties=species:S:1:pos:R:3:energy:R:1 pbc="F F F"
C        1.38232815      -3.13459873      -0.47946706      71.55572988
H        1.33433211      -3.52113128      -1.49988663      71.55572988
H        2.35966110      -2.76641202      -0.16367225      71.55572988
C        0.43326855      -3.54609013       0.46016219      71.55572988
H       -0.37991998      -4.22452831       0.19242647      71.55572988
H        0.69217294      -3.52840781       1.52193725      71.55572988
H       -0.18492760      -1.55664742       1.24395049      71.55572988
Rh      -0.05975938      -1.42339170      -0.34229529      71.55572988
O        1.53762472       1.03068674       1.48665547      71.55572988
O        3.13462067      -0.68956316       0.45195174      71.55572988
O        2.26552486       1.24489987      -0.84692878      71.55572988
O       -2.23583984       0.89747089      -1.56058705      71.55572988
O       -3.17903423      -0.33773500       0.38410833      71.55572988
O       -1.38629508       1.48598099       0.65203202      71.55572988
P       -1.71695364       0.13289204      -0.20188086      71.55572988
P        1.71587670       0.06068681       0.14963485      71.55572988
C       -0.69800723      -2.08768320      -2.03435802      71.55572988
O       -1.17773449      -2.73171735      -2.86819530      71.55572988
C        0.90054446       0.58708173       2.67143750      71.55572988
H        0.02783226      -0.04408183       2.44874120      71.55572988
H        1.59646916       0.00782268       3.30442357      71.55572988
H        0.56104451       1.47441041       3.22434998      71.55572988
C        4.33363056       0.02308248       0.83978063      71.55572988
H        4.05007744       1.05373275       1.10633039      71.55572988
C        5.28266716       0.04618750      -0.34837559      71.55572988
H        4.80556202       0.55788487      -1.19576585      71.55572988
H        5.53854227      -0.98112506      -0.65429300      71.55572988
H        6.21383619       0.57642436      -0.09114802      71.55572988
C        4.89846802      -0.67926258       2.06425929      71.55572988
H        4.16933060      -0.66255093       2.88867950      71.55572988
H        5.13264418      -1.73043633       1.83073652      71.55572988
H        5.82123041      -0.18323396       2.40474010      71.55572988
C        1.32432783       2.17111897      -1.43571842      71.55572988
H        0.36384222       2.08484316      -0.90592366      71.55572988
C        1.12877250       1.79571319      -2.89593983      71.55572988
H        0.74348527       0.76766223      -2.96759796      71.55572988
H        2.08686876       1.85152495      -3.43768716      71.55572988
H        0.40809590       2.47375679      -3.38001275      71.55572988
C        1.86657536       3.57398629      -1.21385050      71.55572988
H        1.96494997       3.77218151      -0.13579404      71.55572988
H        2.85842824       3.68631673      -1.68088758      71.55572988
H        1.18845618       4.32451200      -1.65082204      71.55572988
C       -2.92091608       0.24574143      -2.61876225      71.55572988
H       -2.23857594      -0.38832584      -3.20367026      71.55572988
H       -3.75347710      -0.36563495      -2.23550177      71.55572988
H       -3.32132411       1.03182399      -3.27524853      71.55572988
C       -3.24558568      -1.43281090       1.32314241      71.55572988
H       -2.30760145      -2.00632191       1.22319627      71.55572988
C       -4.40526628      -2.31626272       0.90919471      71.55572988
H       -4.24074173      -2.68498516      -0.11504100      71.55572988
H       -5.35616112      -1.76090324       0.93395883      71.55572988
H       -4.48281956      -3.18467808       1.58175004      71.55572988
C       -3.33329868      -0.87144727       2.73417640      71.55572988
H       -2.44903564      -0.25310078       2.95355058      71.55572988
H       -4.23168898      -0.24500336       2.85538578      71.55572988
H       -3.36961842      -1.68696189       3.47339869      71.55572988
C       -2.34622455       2.57106781       0.80543131      71.55572988
H       -3.34264231       2.18307781       0.54089236      71.55572988
C       -1.99089324       3.72379208      -0.12593310      71.55572988
H       -2.00519872       3.39620948      -1.17371988      71.55572988
H       -0.99297810       4.12530375       0.11086603      71.55572988
H       -2.72394967       4.53886890      -0.00424867      71.55572988
C       -2.33837175       2.98414969       2.26899052      71.55572988
H       -2.61077452       2.14014888       2.91829848      71.55572988
H       -1.33999181       3.34654880       2.56123686      71.55572988
H       -3.06258798       3.79784513       2.43674636      71.55572988
