80
Properties=species:S:1:pos:R:3:energy:R:1 pbc="F F F"
C        1.75967693      -0.35877246      -2.48613095      62.17348110
H        1.63428724       0.46708804      -3.19439769      62.17348110
H        2.75056648      -0.41115957      -2.02803349      62.17348110
C        0.99657869      -1.54193461      -2.64783978      62.17348110
H        0.29229948      -1.63613665      -3.47886920      62.17348110
H        1.42798185      -2.48723817      -2.31024194      62.17348110
H        0.97193527      -1.48714364      -0.25659147      62.17348110
Rh       0.19585221      -0.32514679      -0.96773440      62.17348110
C        2.57122350       0.07718351       1.72538197      62.17348110
C        2.61491060       2.19752264      -0.24090995      62.17348110
C        0.54424584       2.12683058       1.78729224      62.17348110
C       -2.82667065       0.19559841       1.02296388      62.17348110
C       -2.43227410      -2.49765134      -0.02910242      62.17348110
C       -0.88463461      -1.51836193       2.22523570      62.17348110
P       -1.47447002      -1.01648331       0.52185374      62.17348110
P        1.42549658       1.02570271       0.56108248      62.17348110
C       -0.89757723       0.50914699      -2.32615352      62.17348110
O       -1.41667831       0.68924773      -3.34230185      62.17348110
H        1.91074002      -0.41852552       2.45302534      62.17348110
H        3.19073772       0.80334866       2.27338624      62.17348110
C        3.43359399      -0.92626458       1.01210856      62.17348110
C        4.71525049      -0.58290434       0.55683964      62.17348110
H        5.12969685       0.39601755       0.81297243      62.17348110
C        2.94762254      -2.20956969       0.71187776      62.17348110
H        1.97384167      -2.51483011       1.09227049      62.17348110
C        5.46815062      -1.47424388      -0.21322438      62.17348110
H        6.46922350      -1.19159412      -0.54807240      62.17348110
C        3.67983699      -3.08963060      -0.08473027      62.17348110
H        3.25612640      -4.06388950      -0.34141579      62.17348110
C        4.94138288      -2.72131205      -0.55926597      62.17348110
H        5.51433134      -3.40843153      -1.18662298      62.17348110
H        3.26806784       2.66274834       0.51746386      62.17348110
H        3.26015282       1.57799065      -0.88330895      62.17348110
C        1.90206265       3.26158404      -1.07753181      62.17348110
H        1.30562031       3.91252351      -0.41368839      62.17348110
H        1.17885542       2.75996757      -1.74209058      62.17348110
C        2.86556220       4.11628628      -1.89897645      62.17348110
H        3.59496760       4.63362408      -1.25309741      62.17348110
H        3.43420267       3.49429345      -2.60994387      62.17348110
H        2.32750463       4.88304853      -2.47913241      62.17348110
H       -0.19290730       2.69762850       1.19736862      62.17348110
H       -0.04925790       1.44971228       2.42493057      62.17348110
C        1.37547660       3.07042336       2.65995669      62.17348110
H        1.93976486       3.76668549       2.01747203      62.17348110
H        2.13054323       2.49479723       3.22183561      62.17348110
C        0.52021831       3.87127852       3.64340973      62.17348110
H       -0.22658058       4.48589277       3.11367536      62.17348110
H       -0.02761207       3.20486426       4.33072281      62.17348110
H        1.13829005       4.54793072       4.25541162      62.17348110
H       -2.30508757       1.07743847       1.42516053      62.17348110
H       -3.40914083      -0.25491688       1.84078288      62.17348110
C       -3.72255874       0.56314188      -0.12213992      62.17348110
C       -4.90298223      -0.15693121      -0.36911613      62.17348110
H       -5.22342014      -0.92236102       0.34306252      62.17348110
C       -3.35293746       1.56948638      -1.02376401      62.17348110
H       -2.44173074       2.14091539      -0.83674479      62.17348110
C       -5.66180277       0.08695613      -1.51464725      62.17348110
H       -6.57346106      -0.48832214      -1.69528782      62.17348110
C       -4.09913111       1.80348909      -2.17975712      62.17348110
H       -3.75620604       2.54867387      -2.90079808      62.17348110
C       -5.24809122       1.05380261      -2.43676853      62.17348110
H       -5.81707191       1.21762550      -3.35511827      62.17348110
H       -3.22590947      -2.75138235       0.69383329      62.17348110
H       -2.92764044      -2.19514465      -0.96546274      62.17348110
C       -1.50016522      -3.68443203      -0.28196284      62.17348110
H       -1.03944027      -4.00280142       0.67074728      62.17348110
H       -0.67081690      -3.33670235      -0.91942483      62.17348110
C       -2.20581198      -4.86954594      -0.93453044      62.17348110
H       -3.03581953      -5.24051905      -0.31008890      62.17348110
H       -2.62699175      -4.58245564      -1.91218626      62.17348110
H       -1.50897753      -5.70655251      -1.10170150      62.17348110
H        0.01954101      -2.12884498       2.07802224      62.17348110
H       -0.54383379      -0.59056830       2.71545649      62.17348110
C       -1.87465537      -2.25326228       3.13539743      62.17348110
H       -2.17258811      -3.20377779       2.66376686      62.17348110
H       -2.80160570      -1.66485405       3.24060678      62.17348110
C       -1.30831933      -2.54256201       4.52743816      62.17348110
H       -0.39650285      -3.15988660       4.46915627      62.17348110
H       -1.04556990      -1.61209917       5.05825043      62.17348110
H       -2.03914881      -3.08519316       5.14904356      62.17348110
