86
Properties=species:S:1:pos:R:3:energy:R:1 pbc="F F F"
C       -1.36624081      -0.10169446       3.14893443      84.07633209
H       -0.96551363       0.45925097       3.99845387      84.07633209
H       -2.41532389       0.13165424       2.94972700      84.07633209
C       -0.94895452      -1.47386890       2.95368359      84.07633209
H       -0.16127748      -1.83867892       3.62474037      84.07633209
H       -1.72284603      -2.23243618       2.79902821      84.07633209
H       -0.67050126      -1.60676179       1.52644654      84.07633209
Rh      -0.02394174      -0.05646476       1.45708509      84.07633209
C       -2.82985838      -0.17660737      -0.83186449      84.07633209
C       -2.82673229       2.10531962       1.12232385      84.07633209
C       -1.26183927       2.21448968      -1.34336367      84.07633209
C        2.63290608       0.38135748      -0.96724178      84.07633209
C        2.84198204      -2.09307388       0.66363699      84.07633209
C        0.71842329      -1.83509371      -1.53311845      84.07633209
P        1.57814187      -0.93841236      -0.12063759      84.07633209
P       -1.66605533       1.00431260       0.05915660      84.07633209
C        1.28586224       0.76916338       2.55039829      84.07633209
O        2.06452303       1.08540461       3.34982463      84.07633209
H       -2.10495400      -0.72680011      -1.46150662      84.07633209
C       -3.92526626       0.35258020      -1.77317477      84.07633209
H       -3.53273659       1.10750950      -2.47090686      84.07633209
H       -4.71059360       0.84935956      -1.18188297      84.07633209
C       -4.57320086      -0.79717359      -2.55718945      84.07633209
H       -5.35769719      -0.40313388      -3.22559510      84.07633209
H       -3.81393195      -1.26732404      -3.20961742      84.07633209
C       -5.15657227      -1.85295670      -1.61343848      84.07633209
H       -5.58807904      -2.68968021      -2.18819441      84.07633209
H       -5.98995109      -1.40280040      -1.04284254      84.07633209
C       -4.09748026      -2.36372539      -0.63252279      84.07633209
H       -3.32122319      -2.91871137      -1.19093273      84.07633209
H       -4.54220268      -3.08073717       0.07789544      84.07633209
C       -3.42717403      -1.21513215       0.12902160      84.07633209
H       -4.17274700      -0.72549863       0.78199715      84.07633209
H       -2.63634068      -1.60463981       0.78310376      84.07633209
H       -3.42130514       1.34373760       1.65295140      84.07633209
C       -2.04863656       2.91054615       2.17748049      84.07633209
H       -2.70506731       3.16076713       3.02750699      84.07633209
H       -1.17801280       2.36205207       2.55550776      84.07633209
H       -1.68665339       3.86238929       1.75960584      84.07633209
C       -3.80376498       3.03814627       0.39723545      84.07633209
H       -4.44316558       2.52650421      -0.33132063      84.07633209
H       -4.46657096       3.51746002       1.13844427      84.07633209
H       -3.27637687       3.85044770      -0.12612653      84.07633209
H       -2.22695013       2.66403410      -1.62431199      84.07633209
C       -0.33728469       3.33482236      -0.85911332      84.07633209
H       -0.06733091       4.00148226      -1.69516662      84.07633209
H       -0.80432275       3.95132292      -0.07984795      84.07633209
H        0.59041886       2.92470866      -0.43696142      84.07633209
C       -0.69483515       1.54243841      -2.59542381      84.07633209
H       -1.35470494       0.76347158      -3.00208581      84.07633209
H       -0.54726310       2.29656502      -3.38695786      84.07633209
H        0.28269486       1.08511588      -2.39718121      84.07633209
H        1.95200036       0.76449965      -1.74542363      84.07633209
C        3.93223860      -0.06084397      -1.66211159      84.07633209
H        3.75656977      -0.88259241      -2.36660815      84.07633209
H        4.63655436      -0.43778170      -0.90152610      84.07633209
C        4.59914213       1.10559238      -2.40388235      84.07633209
H        5.52879744       0.75484044      -2.88320594      84.07633209
H        3.93579166       1.44403354      -3.22140882      84.07633209
C        4.88826396       2.28157804      -1.46951013      84.07633209
H        5.32855067       3.12386550      -2.02915153      84.07633209
H        5.64280575       1.97314632      -0.72252650      84.07633209
C        3.61518576       2.71988188      -0.74372754      84.07633209
H        2.90555142       3.14396921      -1.47869279      84.07633209
H        3.83379126       3.52595272      -0.02394265      84.07633209
C        2.94066853       1.55250564      -0.01821391      84.07633209
H        3.59842980       1.19730986       0.79464556      84.07633209
H        2.01562309       1.88665952       0.46505814      84.07633209
H        3.56688448      -1.36669541       1.07408610      84.07633209
C        2.25924394      -2.86930430       1.84921408      84.07633209
H        3.06376474      -3.40941672       2.37577413      84.07633209
H        1.76145351      -2.19564565       2.55582094      84.07633209
H        1.51965199      -3.61458354       1.51558200      84.07633209
C        3.59470064      -3.05423793      -0.26818636      84.07633209
H        4.06755758      -2.56006104      -1.12342061      84.07633209
H        4.39334506      -3.56271296       0.29833475      84.07633209
H        2.92863304      -3.84026939      -0.65406224      84.07633209
H       -0.07574328      -1.10946371      -1.76668894      84.07633209
C        1.49153730      -2.08202187      -2.83471103      84.07633209
H        0.81912425      -2.55370813      -3.57153353      84.07633209
H        1.85996205      -1.15056145      -3.28715329      84.07633209
H        2.34529529      -2.75994013      -2.69736370      84.07633209
C        0.02157917      -3.11649844      -1.06115925      84.07633209
H       -0.56495743      -2.94449976      -0.14746542      84.07633209
H       -0.66616555      -3.47913463      -1.84357653      84.07633209
H        0.74262824      -3.92440765      -0.86192753      84.07633209
