104
Properties=species:S:1:pos:R:3:energy:R:1 pbc="F F F"
C        0.74468349       0.65510374      -3.53965273      83.36547089
H        0.04931760       1.30860143      -4.07548806      83.36547089
H        1.78528621       0.97963671      -3.65729459      83.36547089
C        0.50159826      -0.78765220      -3.56215153      83.36547089
H       -0.45238699      -1.09519502      -4.00903249      83.36547089
H        1.31809792      -1.44705065      -3.87010169      83.36547089
H        0.71520881      -1.24844853      -2.27823609      83.36547089
Rh       0.02568767       0.14175911      -1.58410252      83.36547089
C        2.49658230       2.61806939      -1.07613731      83.36547089
C        2.42700870       0.80605662       1.14594652      83.36547089
C        3.58609688      -0.05818902      -1.34588302      83.36547089
C       -0.97328690      -0.48673567       1.78636969      83.36547089
C       -2.74347832      -1.53874970      -0.19737538      83.36547089
C       -0.22040059      -2.87942478       0.25636648      83.36547089
P       -0.94351493      -1.17605508       0.05189520      83.36547089
P        2.08936610       0.82396052      -0.68333389      83.36547089
C       -1.54189279       1.16776506      -1.81411540      83.36547089
O       -2.52752007       1.72365242      -2.06311930      83.36547089
H        3.46778479       2.87703177      -0.62764835      83.36547089
H        2.60539625       2.66922649      -2.16979367      83.36547089
C        1.42295573       3.55939925      -0.60405547      83.36547089
C        0.29676630       3.81941754      -1.40231067      83.36547089
H        0.22357971       3.35860927      -2.38727895      83.36547089
C        1.48823409       4.14829177       0.66726418      83.36547089
H        2.35473819       3.95864655       1.30567241      83.36547089
C       -0.73411519       4.64203444      -0.95252007      83.36547089
H       -1.62172732       4.82697021      -1.55958965      83.36547089
C        0.46450982       4.97642897       1.13537311      83.36547089
H        0.50369465       5.43732661       2.12381835      83.36547089
C       -0.63247304       5.21096081       0.31343607      83.36547089
F       -1.63892322       5.98766019       0.76210101      83.36547089
H        1.57170648       1.31209844       1.62260890      83.36547089
H        3.31068105       1.42951358       1.35573119      83.36547089
C        2.60649179      -0.60256053       1.71410398      83.36547089
H        1.80132401      -1.24813670       1.33312343      83.36547089
H        3.54341964      -1.04411976       1.33266503      83.36547089
C        2.62026225      -0.68355418       3.24985411      83.36547089
H        1.69571136      -0.20006980       3.61903982      83.36547089
C        2.59343449      -2.14658657       3.70305981      83.36547089
H        1.70653740      -2.67269086       3.31282907      83.36547089
H        2.57821666      -2.22808243       4.80165730      83.36547089
H        3.48580229      -2.68594598       3.34063956      83.36547089
C        3.81314546       0.06277965       3.85481403      83.36547089
H        3.81726482      -0.01606871       4.95366541      83.36547089
H        3.80267762       1.13332676       3.59838087      83.36547089
H        4.76373183      -0.36093137       3.48542977      83.36547089
H        3.48610130      -0.04679790      -2.44451400      83.36547089
H        3.43309884      -1.10815623      -1.05136631      83.36547089
C        4.97106748       0.44066713      -0.93431808      83.36547089
H        5.13288541       1.44780105      -1.35342836      83.36547089
H        5.02738686       0.55592353       0.16263632      83.36547089
C        6.13147142      -0.46691702      -1.38168990      83.36547089
H        6.01588868      -0.64571527      -2.46771730      83.36547089
C        7.47507813       0.23316365      -1.15742699      83.36547089
H        7.52574147       1.19053090      -1.70131820      83.36547089
H        8.31794598      -0.39237621      -1.49235151      83.36547089
H        7.62610676       0.45112821      -0.08566070      83.36547089
C        6.10589828      -1.82596530      -0.67363277      83.36547089
H        6.93916820      -2.46483986      -1.00722019      83.36547089
H        5.17258873      -2.37912995      -0.86172294      83.36547089
H        6.20213513      -1.69708021       0.41904018      83.36547089
H       -1.16837840      -1.31181907       2.48419587      83.36547089
H        0.03734762      -0.11239338       1.98183740      83.36547089
C       -1.99520627       0.60178620       1.98098982      83.36547089
C       -1.80215426       1.89922192       1.47577141      83.36547089
H       -0.89224700       2.13848908       0.92248665      83.36547089
C       -3.18672735       0.32392747       2.66845632      83.36547089
H       -3.35118807      -0.67859760       3.07218956      83.36547089
C       -2.76654785       2.89173493       1.66269515      83.36547089
H       -2.62835723       3.90640033       1.29186495      83.36547089
C       -4.16147952       1.30405578       2.86024471      83.36547089
H       -5.08466325       1.09657546       3.40433165      83.36547089
C       -3.93561645       2.57934783       2.35052273      83.36547089
F       -4.86262094       3.53248584       2.53989663      83.36547089
H       -3.22851408      -0.55397318      -0.28202312      83.36547089
H       -3.14794723      -2.01215197       0.71154488      83.36547089
C       -3.02551256      -2.37563938      -1.44414087      83.36547089
H       -2.38018703      -2.01501357      -2.26356213      83.36547089
H       -2.74099690      -3.42870093      -1.26297659      83.36547089
C       -4.48779590      -2.32974042      -1.91435688      83.36547089
H       -4.72446256      -1.27042788      -2.12875806      83.36547089
C       -4.64541124      -3.12178989      -3.21474824      83.36547089
H       -3.96005348      -2.74780843      -3.99273403      83.36547089
H       -5.67247794      -3.05894818      -3.60845188      83.36547089
H       -4.41275005      -4.18905553      -3.05264000      83.36547089
C       -5.46148766      -2.82205910      -0.83874006      83.36547089
H       -6.50053880      -2.80854470      -1.20586110      83.36547089
H       -5.42351245      -2.19785905       0.06742304      83.36547089
H       -5.22619189      -3.85988799      -0.54272103      83.36547089
H        0.86465416      -2.75136295       0.39428802      83.36547089
H       -0.33125307      -3.33494424      -0.74032852      83.36547089
C       -0.79134485      -3.79552716       1.34043917      83.36547089
H       -0.60829806      -3.35384115       2.33475281      83.36547089
H       -1.88852512      -3.87478790       1.23936656      83.36547089
C       -0.19673917      -5.21661740       1.32705182      83.36547089
H        0.90342132      -5.11331331       1.39507692      83.36547089
C       -0.66948264      -6.01379658       2.54669944      83.36547089
H       -0.40229755      -5.50640170       3.48822929      83.36547089
H       -0.22224919      -7.02067222       2.56715828      83.36547089
H       -1.76646954      -6.13596231       2.53338314      83.36547089
C       -0.52117660      -5.96371254       0.02936512      83.36547089
H       -0.09642502      -6.98017174       0.03907380      83.36547089
H       -0.12214076      -5.45065858      -0.85871740      83.36547089
H       -1.61336477      -6.05915865      -0.10203129      83.36547089
