76
Properties=species:S:1:pos:R:3:energy:R:1 pbc="F F F"
C        0.35277025      -2.95750635       2.95438847      38.36196136
H        0.51710501      -4.03061797       2.82112728      38.36196136
H        1.23032969      -2.41999644       3.32939132      38.36196136
C       -0.94725637      -2.48987625       3.26906457      38.36196136
H       -1.78741760      -3.17923068       3.36780528      38.36196136
H       -1.04024730      -1.58289306       3.87395315      38.36196136
H       -0.44963043      -0.72916184       1.96290841      38.36196136
Rh      -0.42585797      -2.07058031       1.13746474      38.36196136
C        2.29566287       0.08283837       1.70250103      38.36196136
C        2.97237080      -2.53028270       0.60410866      38.36196136
C        2.03613429      -0.32291654      -1.16482277      38.36196136
C       -2.22617647      -2.09783312      -1.96539118      38.36196136
C       -3.70483345      -0.88983222       0.23217298      38.36196136
C       -1.66420895       0.53737992      -1.25678879      38.36196136
P       -1.96640782      -1.10663215      -0.41727472      38.36196136
P        1.67904507      -1.17009105       0.49154845      38.36196136
C       -0.82198824      -3.82816138       0.45504789      38.36196136
O       -1.19234953      -4.88618745       0.17948690      38.36196136
H        1.62935670       0.95545055       1.66416219      38.36196136
H        2.23896980      -0.35083333       2.71146822      38.36196136
H        3.31968068       0.41739401       1.48979993      38.36196136
H        2.89833226      -2.87745934       1.64578217      38.36196136
H        2.57546003      -3.34107652      -0.02356161      38.36196136
C        4.37951591      -2.18679881       0.22865394      38.36196136
C        4.87286666      -2.49700743      -1.04891358      38.36196136
H        4.23372268      -3.03771330      -1.75203109      38.36196136
C        5.22991215      -1.51644854       1.12379918      38.36196136
H        4.87712185      -1.28404973       2.13092418      38.36196136
C        6.16529794      -2.13710930      -1.43719330      38.36196136
H        6.55311205      -2.37716872      -2.42862147      38.36196136
C        6.51927886      -1.13719728       0.75005559      38.36196136
H        7.18222367      -0.60995851       1.43845153      38.36196136
C        6.96943288      -1.44880197      -0.53189439      38.36196136
F        8.20951718      -1.09058581      -0.89789748      38.36196136
H        2.57752263      -1.05819843      -1.77823514      38.36196136
H        1.05510246      -0.17773730      -1.63305093      38.36196136
C        2.78254295       0.98482602      -1.10108425      38.36196136
C        2.09069272       2.19043210      -0.89543837      38.36196136
H        1.00343367       2.18595356      -0.82215824      38.36196136
C        4.18292840       1.03401156      -1.18909354      38.36196136
H        4.74607207       0.11711768      -1.35745556      38.36196136
C        2.76661300       3.40396010      -0.75810173      38.36196136
H        2.22842129       4.33865263      -0.58903227      38.36196136
C        4.87565326       2.24012354      -1.06362902      38.36196136
H        5.96464990       2.27944087      -1.13011577      38.36196136
C        4.15701935       3.41233759      -0.84087187      38.36196136
F        4.81669557       4.57373869      -0.70595220      38.36196136
H       -2.55964463      -3.11406957      -1.71169115      38.36196136
H       -2.96550358      -1.62788060      -2.63236139      38.36196136
H       -1.26653792      -2.18074590      -2.49869888      38.36196136
H       -4.01960080      -1.90824767       0.50964861      38.36196136
H       -3.58163120      -0.33089219       1.17117705      38.36196136
C       -4.69180565      -0.22308365      -0.68139378      38.36196136
C       -4.84705137       1.17383716      -0.66388784      38.36196136
H       -4.25649691       1.77042212       0.03504982      38.36196136
C       -5.45808358      -0.96445120      -1.59631405      38.36196136
H       -5.36296052      -2.05311117      -1.62319336      38.36196136
C       -5.73365211       1.81666356      -1.52844529      38.36196136
H       -5.85958000       2.90097746      -1.51476726      38.36196136
C       -6.35466571      -0.33772746      -2.46488067      38.36196136
H       -6.96264834      -0.90798138      -3.16998597      38.36196136
C       -6.48135642       1.04870966      -2.41837012      38.36196136
F       -7.34576144       1.65458794      -3.24427855      38.36196136
H       -0.78248930       0.37975244      -1.90360992      38.36196136
H       -2.50120797       0.70833685      -1.95322015      38.36196136
C       -1.45299757       1.75894242      -0.39391523      38.36196136
C       -1.50996874       3.04752065      -0.95335399      38.36196136
H       -1.77097017       3.17136153      -2.00797087      38.36196136
C       -1.14261782       1.65325826       0.96560045      38.36196136
H       -1.08201311       0.66654865       1.42032741      38.36196136
C       -1.22886625       4.18046517      -0.18509806      38.36196136
H       -1.26850870       5.18557731      -0.60827546      38.36196136
C       -0.84160869       2.76709564       1.74702111      38.36196136
H       -0.57342175       2.65737470       2.79970497      38.36196136
C       -0.87936179       4.02380385       1.15646601      38.36196136
F       -0.58705580       5.10586666       1.89151007      38.36196136
