74
Properties=species:S:1:pos:R:3:energy:R:1 pbc="F F F"
C        0.91626467      -3.77429446      -0.14420809      37.30026245
H        0.49955302      -4.66162965      -0.62603721      37.30026245
H        1.92507637      -3.52326779      -0.48571973      37.30026245
C        0.53238556      -3.47172132       1.19427790      37.30026245
H       -0.18317730      -4.12074054       1.70486724      37.30026245
H        1.26963766      -3.00203463       1.84887163      37.30026245
H       -0.19336978      -1.93996675       1.24201087      37.30026245
Rh      -0.52195351      -2.15605979      -0.34139858      37.30026245
C        2.17930221      -0.84961342      -2.32946232      37.30026245
O        0.74475634       0.93398474      -0.78082346      37.30026245
O        2.41064967      -0.67034422       0.40218458      37.30026245
C       -2.69314211       0.08646058      -1.86661690      37.30026245
O       -3.63919366      -1.23770754       0.39613578      37.30026245
O       -2.06522652       0.81669946       0.57611470      37.30026245
P       -2.20658681      -0.62739268      -0.23804365      37.30026245
P        1.20016474      -0.69364257      -0.76441354      37.30026245
C       -1.55842298      -3.19945079      -1.55954588      37.30026245
O       -2.22340706      -3.85182353      -2.22998770      37.30026245
H        2.74730634      -1.78996304      -2.23622743      37.30026245
C        1.24844662      -0.88944483      -3.54058922      37.30026245
H        0.69057186       0.05494232      -3.64604654      37.30026245
H        0.50917088      -1.69876827      -3.43817732      37.30026245
H        2.91745836      -0.03803314      -2.40797813      37.30026245
H        1.81784510      -1.05109837      -4.46862362      37.30026245
C        1.62166804       1.98885140      -0.77509840      37.30026245
C        1.97985216       2.60259386      -1.97967532      37.30026245
H        1.56220123       2.22629004      -2.91451005      37.30026245
C        2.13727102       2.45836874       0.43876128      37.30026245
H        1.85471158       1.95876425       1.36320913      37.30026245
C        2.86249945       3.68504142      -1.97660672      37.30026245
H        3.16023917       4.18041638      -2.90243427      37.30026245
C        3.01004084       3.54618917       0.44741483      37.30026245
H        3.42638693       3.93312381       1.37930862      37.30026245
C        3.36444127       4.14445158      -0.76118096      37.30026245
F        4.21143401       5.18556647      -0.75429003      37.30026245
C        3.76911414      -0.82939351       0.23347822      37.30026245
C        4.57008147       0.18729274      -0.29991545      37.30026245
H        4.12004269       1.13130896      -0.59865235      37.30026245
C        4.34974098      -2.03356685       0.64897640      37.30026245
H        3.71463651      -2.80935582       1.07938803      37.30026245
C        5.94543095      -0.00664064      -0.43369364      37.30026245
H        6.58725322       0.77256508      -0.84871906      37.30026245
C        5.72509648      -2.23234222       0.51597083      37.30026245
H        6.20009709      -3.16314274       0.83117712      37.30026245
C        6.50589270      -1.21598641      -0.02987553      37.30026245
F        7.82601148      -1.40636897      -0.16772002      37.30026245
H       -3.25472258      -0.71714256      -2.37317258      37.30026245
C       -3.44159980       1.41940935      -1.90406877      37.30026245
H       -2.85768673       2.20843263      -1.40979504      37.30026245
H       -4.42176839       1.36696697      -1.41245180      37.30026245
H       -1.73465378       0.16935367      -2.40240499      37.30026245
H       -3.60622206       1.72086939      -2.95110597      37.30026245
C       -4.84204396      -0.56214190       0.37712671      37.30026245
C       -5.82599056      -0.96011923      -0.53322038      37.30026245
H       -5.61446632      -1.78332325      -1.21758402      37.30026245
C       -5.08801867       0.48175559       1.27574989      37.30026245
H       -4.31459694       0.77410516       1.98572259      37.30026245
C       -7.05618449      -0.30070340      -0.56171599      37.30026245
H       -7.84277607      -0.58807684      -1.26232150      37.30026245
C       -6.31673741       1.14312986       1.24922746      37.30026245
H       -6.53577326       1.96314995       1.93563615      37.30026245
C       -7.28426835       0.74612482       0.32837721      37.30026245
F       -8.46700269       1.38264437       0.30515095      37.30026245
C       -1.36865037       1.06786705       1.72796174      37.30026245
C       -0.88486085       2.36863704       1.89790850      37.30026245
H       -1.06872142       3.10662568       1.11613300      37.30026245
C       -1.16454429       0.10368882       2.72050921      37.30026245
H       -1.57804535      -0.89718199       2.60433585      37.30026245
C       -0.16383072       2.70004981       3.04415569      37.30026245
H        0.22761445       3.70721994       3.19720718      37.30026245
C       -0.41274968       0.42449715       3.85305891      37.30026245
H       -0.21206688      -0.32073220       4.62472362      37.30026245
C        0.08533110       1.71504412       3.99796698      37.30026245
F        0.80903527       2.02145011       5.08685471      37.30026245
