76
Properties=species:S:1:pos:R:3:energy:R:1 pbc="F F F"
C       -4.32908481      -0.32595150      -0.79185927      64.59420776
H       -4.84361350      -1.25726758      -0.54863193      64.59420776
H       -4.51840423       0.50179417      -0.10940848      64.59420776
C       -3.92027020      -0.05232975      -2.09667445      64.59420776
H       -4.07549426      -0.77196252      -2.90359570      64.59420776
H       -3.83249916       0.98755111      -2.42212543      64.59420776
H       -1.82413523       0.14441178      -2.13606054      64.59420776
Rh      -2.11952167      -0.78860904      -0.84502408      64.59420776
O       -0.63189390       1.57713859       1.59361610      64.59420776
C       -3.32162102       1.11972081       2.03013489      64.59420776
C       -1.24903963      -0.79060977       2.66900966      64.59420776
O        0.84410656      -1.60354039       0.47210852      64.59420776
C        0.60684408      -2.69762124      -1.99171063      64.59420776
C        1.16641798       0.15926927      -1.66387395      64.59420776
P        0.10718901      -1.20682404      -1.02087731      64.59420776
P       -1.83096248       0.28490428       1.28897124      64.59420776
C       -2.59182733      -2.66151708      -0.98534995      64.59420776
O       -2.83681691      -3.74884499      -1.29498335      64.59420776
C       -0.18101690       2.42881025       0.63172321      64.59420776
C       -0.85698300       2.65934421      -0.57536202      64.59420776
H       -1.80892017       2.16805358      -0.76596010      64.59420776
C        1.04899567       3.07041843       0.86015286      64.59420776
H        1.54979817       2.92668162       1.82000418      64.59420776
C       -0.27163566       3.44368527      -1.57185297      64.59420776
H       -0.77843128       3.57659205      -2.52920122      64.59420776
C        1.63132404       3.86359775      -0.12960347      64.59420776
H        2.59475295       4.34818453       0.03884088      64.59420776
C        0.97964859       4.02302162      -1.35783134      64.59420776
Cl       1.74507079       4.94418551      -2.64406417      64.59420776
H       -3.59817799       1.92868879       1.33095097      64.59420776
H       -4.13703187       0.37885752       1.97818166      64.59420776
C       -3.19224210       1.67167134       3.45026418      64.59420776
H       -2.30865338       2.32831039       3.50934839      64.59420776
H       -3.00767937       0.84194373       4.15272224      64.59420776
C       -4.44504759       2.43122832       3.89102984      64.59420776
H       -4.64422655       3.29163519       3.23007809      64.59420776
H       -5.33696880       1.78230110       3.86384411      64.59420776
H       -4.34236264       2.81571316       4.91841591      64.59420776
H       -0.25628655      -1.14143709       2.35792337      64.59420776
H       -1.12226726      -0.17744584       3.57479725      64.59420776
C       -2.16052238      -1.99550286       2.92464651      64.59420776
H       -2.34040160      -2.51861421       1.97031746      64.59420776
H       -3.15154166      -1.65758516       3.27804141      64.59420776
C       -1.55755349      -2.96675919       3.94088459      64.59420776
H       -0.58953036      -3.35621304       3.58354835      64.59420776
H       -1.37876984      -2.47662283       4.91252364      64.59420776
H       -2.22024447      -3.82985482       4.11608140      64.59420776
C        2.17571371      -1.45881474       0.78157456      64.59420776
C        2.64125060      -0.23997179       1.29471434      64.59420776
H        1.93400041       0.57546927       1.44340552      64.59420776
C        3.06470695      -2.53280452       0.63503623      64.59420776
H        2.69417064      -3.49328535       0.27313001      64.59420776
C        3.99241999      -0.07426189       1.60399826      64.59420776
H        4.36386465       0.87807007       1.98719660      64.59420776
C        4.41685966      -2.37377797       0.95031672      64.59420776
H        5.11851653      -3.20209964       0.83355622      64.59420776
C        4.87855652      -1.13955044       1.41798626      64.59420776
Cl       6.57700105      -0.93042140       1.79017290      64.59420776
H        1.70182201      -2.81401227      -1.93332340      64.59420776
H        0.15937577      -3.55597863      -1.46296426      64.59420776
C        0.13113371      -2.65272834      -3.44543865      64.59420776
H        0.62470367      -1.81293937      -3.96497131      64.59420776
H       -0.94654790      -2.42235035      -3.45590489      64.59420776
C        0.40023797      -3.95550646      -4.19666884      64.59420776
H        1.47462943      -4.20465549      -4.20374545      64.59420776
H       -0.13502198      -4.79717886      -3.72647099      64.59420776
H        0.06320294      -3.88686342      -5.24324431      64.59420776
H        0.54288192       0.64397651      -2.42868955      64.59420776
H        1.22731199       0.88813832      -0.84335087      64.59420776
C        2.56432296      -0.13305790      -2.21455003      64.59420776
H        2.48856766      -0.78284140      -3.10218837      64.59420776
H        3.16940467      -0.68477785      -1.48027788      64.59420776
C        3.27593678       1.17050565      -2.58229571      64.59420776
H        2.68247199       1.76511426      -3.29612994      64.59420776
H        3.42682981       1.80038599      -1.69083586      64.59420776
H        4.26134340       0.97821686      -3.03511787      64.59420776
