58
Properties=species:S:1:pos:R:3:energy:R:1 pbc="F F F"
C       -3.02861820      -1.34757492      -0.84481831      43.31172180
H       -3.46422478      -2.34872011      -0.87970763      43.31172180
H       -3.57900303      -0.64162344      -0.21718430      43.31172180
C       -2.34981766      -0.83320849      -1.98877722      43.31172180
H       -2.18439563      -1.49351092      -2.84452643      43.31172180
H       -2.48600131       0.21766482      -2.25763477      43.31172180
H       -0.91427279      -0.18339986      -1.36164491      43.31172180
Rh      -0.91300674      -1.47652089      -0.36085385      43.31172180
O       -2.13391951       1.04024083       1.66477557      43.31172180
C       -2.46833505      -1.33542910       2.74973100      43.31172180
C        0.04223912      -0.04648395       2.84792598      43.31172180
O        1.95705474       0.10248864       0.26629978      43.31172180
C        2.25792587      -2.62728969       0.48426941      43.31172180
C        2.24669314      -1.36920457      -2.06020445      43.31172180
P        1.36659880      -1.30673042      -0.44848839      43.31172180
P       -1.30579817      -0.42914055       1.64404827      43.31172180
C       -0.92116008      -3.38148650      -0.59984103      43.31172180
O       -0.94600502      -4.50076848      -0.89105282      43.31172180
C       -2.09562630       1.91483066       0.61019581      43.31172180
C       -0.88907330       2.29700793       0.01509697      43.31172180
H        0.05126742       1.88757505       0.38546683      43.31172180
C       -3.32639258       2.42120093       0.15096957      43.31172180
C       -4.60680298       2.00600427       0.82335478      43.31172180
H       -5.47244102       2.51565385       0.37599025      43.31172180
H       -4.76913334       0.91850909       0.74091279      43.31172180
H       -4.58248772       2.23386810       1.90092694      43.31172180
C       -0.89842024       3.18503097      -1.06358860      43.31172180
H        0.04639807       3.48033275      -1.52575768      43.31172180
C       -3.30675273       3.30919511      -0.93231009      43.31172180
H       -4.25540379       3.70781807      -1.30286467      43.31172180
C       -2.10815891       3.69002491      -1.54403234      43.31172180
H       -2.12047528       4.38132532      -2.38997459      43.31172180
H       -1.99086433      -2.28227530       3.04434379      43.31172180
H       -2.72162022      -0.74617813       3.64455953      43.31172180
H       -3.38307818      -1.57200540       2.18878416      43.31172180
H       -0.36083182       0.48157407       3.72542585      43.31172180
H        0.50584660      -0.99295076       3.16807304      43.31172180
H        0.81051749       0.56310810       2.35630879      43.31172180
C        3.28022040       0.49118130       0.24612285      43.31172180
C        4.15809394       0.01030454       1.22613673      43.31172180
H        3.78068919      -0.67768775       1.98351955      43.31172180
C        3.71037093       1.42124455      -0.71739080      43.31172180
C        2.76526056       1.98145222      -1.74646726      43.31172180
H        3.01528957       1.61642675      -2.75666494      43.31172180
H        1.72585079       1.70452866      -1.53263035      43.31172180
H        2.83139304       3.08086383      -1.77586109      43.31172180
C        5.49134588       0.42055866       1.23515111      43.31172180
H        6.17428927       0.03950751       1.99843424      43.31172180
C        5.05523791       1.82058483      -0.68265285      43.31172180
H        5.40629221       2.54313888      -1.42517324      43.31172180
C        5.94441637       1.32515635       0.27112398      43.31172180
H        6.98682141       1.65307547       0.26860285      43.31172180
H        1.94149370      -2.58615436       1.53620701      43.31172180
H        1.94082091      -3.59618280       0.07104063      43.31172180
H        3.35083429      -2.53240048       0.41427732      43.31172180
H        3.32981908      -1.21042330      -1.94587483      43.31172180
H        2.06469623      -2.36755076      -2.48606963      43.31172180
H        1.82551826      -0.61961831      -2.74250614      43.31172180
