86
Properties=species:S:1:pos:R:3:energy:R:1 pbc="F F F"
C        1.03916080      -2.57166957       2.32950063      89.91189575
H        1.20801056      -3.59929844       1.99080187      89.91189575
H        1.96013855      -2.10523634       2.68837679      89.91189575
C       -0.19580733      -2.24484788       3.04549510      89.91189575
H       -0.89892169      -3.07867951       3.16466214      89.91189575
H       -0.08744643      -1.65897067       3.96014403      89.91189575
H       -0.85364582      -1.17880898       2.44682999      89.91189575
Rh      -0.11807269      -1.42471661       0.93082567      89.91189575
O        1.84783207       1.36184286       1.71343958      89.91189575
C        3.26886634      -0.71950718       0.68209083      89.91189575
C        1.70425738       1.05993005      -0.91341328      89.91189575
O       -1.20175610       0.30476522      -1.60742288      89.91189575
C       -3.29435719      -1.18874787      -0.57195016      89.91189575
C       -2.39885933       1.30833832       0.66808288      89.91189575
P       -1.75645472      -0.23436729      -0.12437322      89.91189575
P        1.59423665       0.07694538       0.63728314      89.91189575
C       -0.57023343      -3.02847980       0.00015298      89.91189575
O       -0.90335340      -4.04123864      -0.44638877      89.91189575
C        1.47068002       1.23254900       3.06600997      89.91189575
H        0.48873322       0.73529206       3.16480963      89.91189575
H        2.21290038       0.65253588       3.64580194      89.91189575
H        1.40405105       2.24280110       3.49890756      89.91189575
H        4.03745584       0.06010578       0.57174860      89.91189575
H        3.40037742      -1.14545738       1.68850233      89.91189575
C        3.41030022      -1.81418314      -0.37696691      89.91189575
H        2.51167668      -2.45400413      -0.34747231      89.91189575
H        3.41815924      -1.35387568      -1.38139416      89.91189575
C        4.65650767      -2.68114183      -0.20755209      89.91189575
H        4.63882343      -3.14832536       0.79458644      89.91189575
H        5.56085269      -2.04448230      -0.22761819      89.91189575
C        4.77390264      -3.77054925      -1.27396346      89.91189575
H        3.86588699      -4.39983682      -1.24612365      89.91189575
H        4.77877912      -3.29897784      -2.27385285      89.91189575
C        6.01393446      -4.64689994      -1.11363741      89.91189575
H        6.07064025      -5.41976627      -1.89680039      89.91189575
H        6.01570231      -5.16087437      -0.13754593      89.91189575
H        6.93753282      -4.04611062      -1.16988337      89.91189575
H        1.57696430       0.33139801      -1.73004370      89.91189575
H        0.80080243       1.68214480      -0.94226111      89.91189575
C        2.95777440       1.91216491      -1.09848797      89.91189575
H        3.11429120       2.52535639      -0.19561217      89.91189575
H        3.84577455       1.26389544      -1.19038687      89.91189575
C        2.88763633       2.81710697      -2.32929037      89.91189575
H        2.00781603       3.48210052      -2.24536694      89.91189575
H        2.71243862       2.20016002      -3.23052359      89.91189575
C        4.14643284       3.66358537      -2.52895762      89.91189575
H        4.31984947       4.26906433      -1.62082714      89.91189575
H        5.02209281       2.99375260      -2.61107094      89.91189575
C        4.08516681       4.57679314      -3.75191019      89.91189575
H        5.00550825       5.17288145      -3.86117764      89.91189575
H        3.23859817       5.28039988      -3.68167855      89.91189575
H        3.95229505       3.99467184      -4.67937034      89.91189575
C       -1.96471302       1.03728688      -2.53657376      89.91189575
H       -2.66498609       0.38864232      -3.09065558      89.91189575
H       -2.53919759       1.85264068      -2.06300766      89.91189575
H       -1.26025687       1.48277925      -3.25478880      89.91189575
H       -2.97645260      -1.80946563      -1.42825282      89.91189575
H       -3.45659666      -1.89836184       0.25601896      89.91189575
C       -4.59864359      -0.45015880      -0.88811225      89.91189575
H       -4.92649666       0.11858556      -0.00156292      89.91189575
H       -4.44706192       0.29501711      -1.68565263      89.91189575
C       -5.72139866      -1.40378233      -1.30555343      89.91189575
H       -5.84574660      -2.17979452      -0.52830652      89.91189575
H       -5.42005906      -1.94464363      -2.22205632      89.91189575
C       -7.06200724      -0.70586321      -1.54240746      89.91189575
H       -7.35102654      -0.15827009      -0.62694297      89.91189575
H       -6.93953375       0.06438451      -2.32609608      89.91189575
C       -8.18085447      -1.66810098      -1.93880652      89.91189575
H       -9.13519010      -1.14097338      -2.09743229      89.91189575
H       -8.34564856      -2.42803456      -1.15641093      89.91189575
H       -7.93583891      -2.20497477      -2.87056255      89.91189575
H       -3.28610410       1.68122340       0.13195460      89.91189575
H       -2.74007239       0.99957859       1.67162579      89.91189575
C       -1.33784271       2.40445773       0.77442504      89.91189575
H       -0.39052750       1.97734395       1.13009339      89.91189575
H       -1.12500213       2.80401616      -0.23252187      89.91189575
C       -1.73412352       3.55083236       1.70328296      89.91189575
H       -1.92595762       3.14226601       2.71293520      89.91189575
H       -2.69183070       3.99472821       1.37166751      89.91189575
C       -0.66689768       4.64307961       1.79516908      89.91189575
H        0.29774646       4.17880876       2.06759969      89.91189575
H       -0.51060541       5.08267932       0.79307286      89.91189575
C       -1.01773305       5.74482649       2.79341799      89.91189575
H       -0.23457951       6.51821814       2.84069984      89.91189575
H       -1.14263010       5.33429192       3.80980689      89.91189575
H       -1.96420063       6.24336253       2.52346204      89.91189575
