70
Properties=species:S:1:pos:R:3:energy:R:1 pbc="F F F"
C       -2.20847861      -2.84387358      -0.01018500      54.81938553
H       -2.07524555      -3.62769504       0.74249513      54.81938553
H       -3.11987537      -2.25424453       0.11841427      54.81938553
C       -1.63933958      -3.01738324      -1.29757496      54.81938553
H       -1.08758208      -3.92884380      -1.54108793      54.81938553
H       -2.12320069      -2.54072775      -2.15435904      54.81938553
H       -1.30316278      -0.67462311      -1.14787228      54.81938553
Rh      -0.47356248      -1.54357501      -0.12345963      54.81938553
C       -1.76426072       1.73194634       0.39061720      54.81938553
C       -2.80313164      -0.22084551       2.23962343      54.81938553
C       -0.16433348       0.85569483       2.63555530      54.81938553
C        2.68113180       0.12594208       0.14601255      54.81938553
C        2.45352287      -1.33810336      -2.26525341      54.81938553
C        0.96069761       1.20096731      -1.94148121      54.81938553
P        1.36747329      -0.39552533      -1.08623326      54.81938553
P       -1.25425668       0.19343745       1.27021964      54.81938553
C        0.61297619      -2.92825602       0.66320721      54.81938553
O        1.26800000      -3.84486843       0.91902284      54.81938553
C       -1.03206608       2.92280008       0.48774319      54.81938553
H       -0.17354561       2.97242391       1.15777013      54.81938553
C       -2.84749426       1.70196527      -0.52244906      54.81938553
O       -3.52019905       0.52750905      -0.62715698      54.81938553
C       -4.46939684       0.35462671      -1.65534005      54.81938553
H       -5.35421069       1.00028268      -1.51076923      54.81938553
H       -4.78199961      -0.69727770      -1.61545848      54.81938553
H       -4.03267793       0.56183651      -2.64830756      54.81938553
C       -1.35429713       4.05656729      -0.26553869      54.81938553
H       -0.76147794       4.96808948      -0.16141688      54.81938553
C       -3.17800509       2.83505528      -1.27864546      54.81938553
H       -4.01244977       2.80708685      -1.97889318      54.81938553
C       -2.43207211       4.00949032      -1.14710514      54.81938553
H       -2.70179991       4.88659881      -1.74107743      54.81938553
H       -3.54442786      -0.52131930       1.48828998      54.81938553
C       -2.58152303      -1.33307707       3.26197641      54.81938553
H       -1.92089532      -1.01356283       4.08349044      54.81938553
H       -2.12223005      -2.21338400       2.78689286      54.81938553
H       -3.18584503       0.69718022       2.71369201      54.81938553
H       -3.53829642      -1.64625339       3.71077283      54.81938553
H        0.71220535       1.30401838       2.14503400      54.81938553
C       -0.77898072       1.80205485       3.66739861      54.81938553
H       -1.53482906       1.29201894       4.28292018      54.81938553
H       -1.26733394       2.66896637       3.19733321      54.81938553
H        0.22765695      -0.04733701       3.12886630      54.81938553
H       -0.00261066       2.18437686       4.35062435      54.81938553
C        2.62399183      -0.41250164       1.43810186      54.81938553
H        1.80158266      -1.08680796       1.67180227      54.81938553
C        3.76625552       0.99365558      -0.14683185      54.81938553
O        3.85787960       1.47397065      -1.41613560      54.81938553
C        4.88032336       2.38640597      -1.74622603      54.81938553
H        4.82437979       3.30251563      -1.13153081      54.81938553
H        4.73044929       2.65345131      -2.80070040      54.81938553
H        5.88307338       1.93857673      -1.62716609      54.81938553
C        3.56933596      -0.11133295       2.42379571      54.81938553
H        3.48759393      -0.56121416       3.41570339      54.81938553
C        4.70427048       1.32450197       0.84408187      54.81938553
H        5.52740851       2.00271227       0.62222258      54.81938553
C        4.60456283       0.76954573       2.12319700      54.81938553
H        5.35024572       1.02986402       2.87931744      54.81938553
H        2.93354597      -2.11014732      -1.64128229      54.81938553
C        1.68609268      -1.98984510      -3.41223802      54.81938553
H        1.27772372      -1.24045336      -4.10781306      54.81938553
H        0.84162932      -2.58004676      -3.02288781      54.81938553
H        3.24707052      -0.66511920      -2.62658437      54.81938553
H        2.34305695      -2.65804422      -3.99219270      54.81938553
H        1.86771902       1.55734739      -2.44363343      54.81938553
C       -0.22330775       1.15886543      -2.90425892      54.81938553
H       -1.10117516       0.69860515      -2.43084293      54.81938553
H        0.00456334       0.57935095      -3.81206610      54.81938553
H        0.74871061       1.90970115      -1.12662049      54.81938553
H       -0.49664098       2.18118214      -3.20946169      54.81938553
