56
Properties=species:S:1:pos:R:3:energy:R:1 pbc="F F F"
C        1.34941222      -3.84514785      -0.71888081      42.37339783
H        0.78300769      -4.61647785      -1.24775778      42.37339783
H        2.10627960      -3.33720801      -1.32964541      42.37339783
C        1.45690909      -3.91250133       0.67532369      42.37339783
H        0.99028085      -4.71666485       1.24905781      42.37339783
H        2.29956179      -3.43650537       1.18567845      42.37339783
H       -0.13168827      -2.71933699       1.60644556      42.37339783
Rh      -0.10002662      -2.30181812       0.00284738      42.37339783
C        1.53709046       1.03406644       0.73075160      42.37339783
C        3.30975844      -1.20785080       0.75209635      42.37339783
C        2.24475445      -0.32106453      -1.73257010      42.37339783
C       -1.96080265       0.59084835      -0.75371245      42.37339783
C       -3.42984886      -1.45772930       0.66062326      42.37339783
C       -1.62405807       0.17142148       2.12720743      42.37339783
P       -1.72400405      -0.75205290       0.54390532      42.37339783
P        1.69307499      -0.70180988       0.00493737      42.37339783
C       -1.32179687      -3.09346582      -1.20750816      42.37339783
O       -2.13190145      -3.66238290      -1.81746259      42.37339783
H        1.38976565       0.88088899       1.81106693      42.37339783
H        0.59917626       1.44720258       0.33456610      42.37339783
C        2.67127146       1.98779341       0.47799477      42.37339783
C        2.68577108       2.79769053      -0.66979008      42.37339783
H        1.84668119       2.75045902      -1.36919702      42.37339783
C        3.75502584       2.08050703       1.36700348      42.37339783
H        3.75734621       1.47142355       2.27476577      42.37339783
C        3.75071675       3.66360850      -0.92696255      42.37339783
H        3.73832051       4.28689231      -1.82489864      42.37339783
C        4.82280683       2.94435432       1.11224554      42.37339783
H        5.65408623       3.00209070       1.81977603      42.37339783
C        4.82611420       3.73927911      -0.03720541      42.37339783
H        5.65934127       4.41778346      -0.23629008      42.37339783
H        3.18289474      -1.33283989       1.83903736      42.37339783
H        3.61895860      -2.17509796       0.33168531      42.37339783
H        4.10287302      -0.47153120       0.56047196      42.37339783
H        3.13825522       0.31984820      -1.77388962      42.37339783
H        2.45148511      -1.27853058      -2.23171561      42.37339783
H        1.41424703       0.15711548      -2.27159561      42.37339783
H       -2.20849451       0.04252337      -1.67576282      42.37339783
H       -0.97150085       1.04048304      -0.92041688      42.37339783
C       -2.98836944       1.64787985      -0.44629330      42.37339783
C       -2.63667308       2.81296520       0.25616041      42.37339783
H       -1.59538921       2.96851259       0.55174001      42.37339783
C       -4.33007626       1.48895882      -0.83211887      42.37339783
H       -4.62342598       0.60020458      -1.39650764      42.37339783
C       -3.59385011       3.77829530       0.57752100      42.37339783
H       -3.29660798       4.67763092       1.12332386      42.37339783
C       -5.29005924       2.45201759      -0.51236069      42.37339783
H       -6.32789746       2.30850872      -0.82440477      42.37339783
C       -4.92657753       3.60038390       0.19636335      42.37339783
H       -5.67683289       4.35495331       0.44609360      42.37339783
H       -3.69656366      -1.93590142      -0.29214443      42.37339783
H       -3.41775185      -2.23182828       1.44069006      42.37339783
H       -4.17216084      -0.68491349       0.91125975      42.37339783
H       -1.59112763      -0.57358685       2.93456624      42.37339783
H       -0.70361194       0.76511200       2.16900712      42.37339783
H       -2.49040254       0.83580945       2.26062772      42.37339783
