90
Properties=species:S:1:pos:R:3:energy:R:1 pbc="F F F"
C       -1.37452226      -2.80344070       2.80275242      49.22248459
H       -1.74126805      -2.40417726       3.75012656      49.22248459
H       -2.13664764      -3.25727844       2.16366923      49.22248459
C       -0.04579296      -3.26455512       2.71353676      49.22248459
H        0.66663162      -3.16874571       3.53286489      49.22248459
H        0.14614030      -4.10800275       2.04617778      49.22248459
H        0.12639755      -2.46642496       0.76852387      49.22248459
Rh      -0.32018394      -1.24636075       1.70413581      49.22248459
O       -2.59469149      -1.78695355      -0.85141040      49.22248459
C       -3.80314127      -0.64542493       1.21527084      49.22248459
C       -2.28605928       0.89173919      -0.72461002      49.22248459
O        1.02539717       0.26700026      -0.88843630      49.22248459
C        2.21743008       1.32278336       1.49547520      49.22248459
C        2.95238063      -1.32280932       0.41882525      49.22248459
P        1.46052987      -0.21631856       0.64008379      49.22248459
P       -2.17754504      -0.65892818       0.30918175      49.22248459
C       -0.48991203       0.01565545       3.14248667      49.22248459
O       -0.53584478       0.78081728       4.00440450      49.22248459
C       -1.62905576      -2.54575550      -1.59135674      49.22248459
H       -0.68085742      -2.53255798      -1.02667633      49.22248459
C       -1.40764886      -1.90608752      -2.95465241      49.22248459
H       -1.03781838      -0.87882357      -2.84238392      49.22248459
H       -2.34951350      -1.88081378      -3.52637355      49.22248459
H       -0.65864956      -2.47238703      -3.53066659      49.22248459
C       -2.14069534      -3.97484034      -1.68192357      49.22248459
H       -2.28594840      -4.39722956      -0.67594624      49.22248459
H       -3.10543005      -4.00608789      -2.21399758      49.22248459
H       -1.42365681      -4.60870534      -2.22779505      49.22248459
H       -3.64240290      -0.00342029       2.09429872      49.22248459
H       -3.90605392      -1.67668268       1.58826298      49.22248459
C       -5.03285405      -0.21397163       0.45549551      49.22248459
C       -5.55641091      -0.98409641      -0.59802434      49.22248459
H       -5.05183411      -1.90875626      -0.87992781      49.22248459
C       -5.68833461       0.98010952       0.79394142      49.22248459
H       -5.29531459       1.59130242       1.60980755      49.22248459
C       -6.69390321      -0.56462834      -1.29091663      49.22248459
H       -7.08671823      -1.17696031      -2.10722985      49.22248459
C       -6.82849165       1.39967477       0.10362532      49.22248459
H       -7.32340691       2.33137360       0.39015402      49.22248459
C       -7.33614132       0.62867919      -0.94436641      49.22248459
H       -8.22860513       0.95272071      -1.48611669      49.22248459
H       -3.19303364       0.80977968      -1.34075971      49.22248459
H       -1.40918633       0.82573799      -1.38629317      49.22248459
C       -2.25973820       2.18542742       0.04726465      49.22248459
C       -1.17953353       2.48328258       0.89038145      49.22248459
H       -0.38652528       1.74915522       0.98231137      49.22248459
C       -3.29156512       3.13032546      -0.06116971      49.22248459
H       -4.14571398       2.92045083      -0.70844428      49.22248459
C       -1.12499334       3.67467863       1.61233957      49.22248459
H       -0.27544562       3.86720041       2.27284589      49.22248459
C       -3.23863404       4.33129292       0.65427047      49.22248459
H       -4.05114102       5.05571649       0.55480133      49.22248459
C       -2.15809745       4.60879000       1.49643867      49.22248459
H       -2.11988008       5.54479226       2.05919527      49.22248459
C        1.76657235       1.06218462      -1.83555634      49.22248459
H        2.83295942       1.04922223      -1.55853279      49.22248459
C        1.23767903       2.49328520      -1.80120885      49.22248459
H        1.30064955       2.92744641      -0.79505086      49.22248459
H        0.17832781       2.51389831      -2.09910797      49.22248459
H        1.80417553       3.13800576      -2.49229040      49.22248459
C        1.60659280       0.43097191      -3.21332822      49.22248459
H        1.89532066      -0.62711123      -3.19650168      49.22248459
H        0.56206135       0.50465359      -3.55228314      49.22248459
H        2.24040864       0.95346306      -3.94811695      49.22248459
H        1.96817152       1.15610396       2.55257052      49.22248459
H        1.62236292       2.18417893       1.16439086      49.22248459
C        3.68845610       1.58353113       1.34973164      49.22248459
C        4.20749739       2.40819853       0.33955238      49.22248459
H        3.52640912       2.93034867      -0.33373947      49.22248459
C        4.59585387       0.96284224       2.22650873      49.22248459
H        4.20923799       0.32833618       3.02904274      49.22248459
C        5.58633819       2.58015110       0.19106519      49.22248459
H        5.96713423       3.22718518      -0.60326933      49.22248459
C        5.97345590       1.13141773       2.08096752      49.22248459
H        6.65592227       0.62976258       2.77148640      49.22248459
C        6.47608518       1.93738912       1.05574006      49.22248459
H        7.55401060       2.06974336       0.93708404      49.22248459
H        2.79652707      -2.07921011       1.20059186      49.22248459
H        3.84988999      -0.75036756       0.67488106      49.22248459
C        3.14630738      -1.96963323      -0.92032645      49.22248459
C        4.10932148      -1.45648880      -1.80144060      49.22248459
H        4.68451198      -0.57485907      -1.50564826      49.22248459
C        2.42353321      -3.10879284      -1.30574948      49.22248459
H        1.68138206      -3.52889179      -0.62297585      49.22248459
C        4.34623371      -2.06052996      -3.03633335      49.22248459
H        5.10425895      -1.64577610      -3.70539408      49.22248459
C        2.66374972      -3.71891821      -2.53899287      49.22248459
H        2.11164230      -4.62146277      -2.81382473      49.22248459
C        3.62495099      -3.19732450      -3.41018624      49.22248459
H        3.82031046      -3.68116145      -4.37019047      49.22248459
