106
Properties=species:S:1:pos:R:3:energy:R:1 pbc="F F F"
C        1.24385477      -1.02713788      -3.40933024      86.16400909
H        1.45830527      -2.04994483      -3.72980804      86.16400909
H        0.43144023      -0.55302978      -3.96624875      86.16400909
C        2.32415628      -0.20834010      -2.95315664      86.16400909
H        3.32421040      -0.64553089      -2.87438155      86.16400909
H        2.34011290       0.84452305      -3.24896669      86.16400909
H        1.83978943       0.41095668      -1.52538567      86.16400909
Rh       1.03259194      -0.99287394      -1.24734004      86.16400909
C       -0.80279819       2.00173146      -0.50052412      86.16400909
C       -1.83830836       0.58840007      -2.77504849      86.16400909
C       -2.30701480      -0.43932499      -0.12118588      86.16400909
C        0.09899432      -1.21996178       2.16012597      86.16400909
C        2.79457665      -1.96144398       1.70405766      86.16400909
C        2.01507747       0.87199794       1.65558032      86.16400909
P        1.50953344      -0.80396043       1.03250661      86.16400909
P       -0.96524660       0.29293796      -1.15771750      86.16400909
C        1.10440049      -2.87664328      -1.18084613      86.16400909
O        1.24405140      -4.02871644      -1.14448131      86.16400909
C       -0.14107922       2.97298114      -1.28146588      86.16400909
H        0.20197338       2.71860848      -2.28771117      86.16400909
C       -1.18868478       2.36860724       0.79415631      86.16400909
H       -1.68648029       1.64760724       1.44375676      86.16400909
C        0.11100511       4.24845259      -0.79455534      86.16400909
H        0.62329082       4.99816967      -1.40065623      86.16400909
C       -0.93695716       3.65030039       1.30372085      86.16400909
H       -1.24980278       3.88627418       2.32087236      86.16400909
C       -0.28159943       4.59942571       0.50955692      86.16400909
O        0.03135072       5.86016268       0.90953018      86.16400909
C       -0.28959288       6.25486416       2.22428950      86.16400909
H        0.21773089       5.62226271       2.97513333      86.16400909
H        0.05799088       7.29067113       2.33577257      86.16400909
H       -1.37874709       6.22059818       2.40868803      86.16400909
H       -2.66505571       1.30504838      -2.64178249      86.16400909
H       -1.10604275       1.07199886      -3.44286705      86.16400909
C       -2.32521332      -0.72171325      -3.39938807      86.16400909
H       -1.53356769      -1.48460076      -3.30316758      86.16400909
H       -3.18177429      -1.10873058      -2.82096627      86.16400909
C       -2.72718892      -0.58797614      -4.86801390      86.16400909
H       -1.86447142      -0.20869184      -5.44718920      86.16400909
H       -3.51786582       0.17871257      -4.96913413      86.16400909
C       -3.20910714      -1.90429168      -5.47942552      86.16400909
H       -2.41213169      -2.66264129      -5.37137621      86.16400909
H       -4.06448158      -2.28559085      -4.89228246      86.16400909
C       -3.60715473      -1.78204602      -6.94876884      86.16400909
H       -3.94775993      -2.74521698      -7.36125224      86.16400909
H       -2.75877878      -1.43674621      -7.56382638      86.16400909
H       -4.42506788      -1.05344913      -7.08116666      86.16400909
H       -2.35892190      -1.49494833      -0.43178796      86.16400909
H       -1.90390795      -0.47199982       0.89771490      86.16400909
C       -3.69733689       0.19071049      -0.11009447      86.16400909
H       -3.62576284       1.27311985       0.09066716      86.16400909
H       -4.17397371       0.09555109      -1.10054680      86.16400909
C       -4.57950099      -0.46783504       0.95294537      86.16400909
H       -4.07287373      -0.39748647       1.93248198      86.16400909
H       -4.65268297      -1.55087767       0.73833566      86.16400909
C       -5.98177337       0.12384728       1.07213562      86.16400909
H       -5.90002282       1.20516433       1.28565796      86.16400909
H       -6.49768113       0.04804840       0.09737928      86.16400909
C       -6.81651265      -0.55412465       2.15744558      86.16400909
H       -7.81867357      -0.10551261       2.24646011      86.16400909
H       -6.32187832      -0.47769622       3.14033214      86.16400909
H       -6.95003246      -1.62785864       1.93943179      86.16400909
C       -0.40342766      -0.33996250       3.13827689      86.16400909
H        0.09212489       0.60990982       3.33619536      86.16400909
C       -0.57426128      -2.43835744       1.98296059      86.16400909
H       -0.22461745      -3.14619347       1.22816833      86.16400909
C       -1.55948317      -0.63529416       3.85509657      86.16400909
H       -1.96106990       0.06080931       4.59440673      86.16400909
C       -1.72393976      -2.76107746       2.71133854      86.16400909
H       -2.22296465      -3.71219752       2.52572637      86.16400909
C       -2.24530546      -1.84047826       3.63378018      86.16400909
O       -3.39336986      -2.01165652       4.33768032      86.16400909
C       -4.17544721      -3.16262634       4.11001260      86.16400909
H       -3.63634976      -4.08696805       4.38574163      86.16400909
H       -5.06483075      -3.06628573       4.74750453      86.16400909
H       -4.49748140      -3.23444510       3.05607417      86.16400909
H        2.87325734      -1.81158716       2.79460673      86.16400909
H        2.38952003      -2.97433229       1.54463416      86.16400909
C        4.14913802      -1.82427364       1.01378360      86.16400909
H        3.98476357      -1.78398387      -0.07749569      86.16400909
H        4.60920095      -0.85910918       1.28925617      86.16400909
C        5.11687355      -2.95917026       1.34500966      86.16400909
H        4.66282128      -3.92124519       1.04419903      86.16400909
H        5.25747176      -3.02136184       2.44080164      86.16400909
C        6.47627837      -2.80010136       0.66374936      86.16400909
H        6.32265863      -2.72376262      -0.42805772      86.16400909
H        6.92375164      -1.83664076       0.97051821      86.16400909
C        7.44669692      -3.93848187       0.97046324      86.16400909
H        8.41470469      -3.79613769       0.46391816      86.16400909
H        7.03699311      -4.90821840       0.64062208      86.16400909
H        7.64267379      -4.01601580       2.05330581      86.16400909
H        1.08146758       1.44486963       1.75176611      86.16400909
H        2.44333993       0.76227661       2.66684987      86.16400909
C        2.94023704       1.65001912       0.72539917      86.16400909
H        3.92877330       1.16534136       0.65442564      86.16400909
H        2.51352519       1.60096760      -0.28803770      86.16400909
C        3.09622400       3.11853230       1.11242180      86.16400909
H        3.64810613       3.21419052       2.06606264      86.16400909
H        2.09510406       3.54633458       1.29313182      86.16400909
C        3.79056865       3.93546961       0.02302739      86.16400909
H        4.80964379       3.54007114      -0.14229734      86.16400909
H        3.25018278       3.77877565      -0.92822583      86.16400909
C        3.84756720       5.42894284       0.33366764      86.16400909
H        4.34765126       5.99445764      -0.46917850      86.16400909
H        4.39892963       5.62036960       1.27003598      86.16400909
H        2.83117786       5.83966946       0.45668074      86.16400909
