76
Properties=species:S:1:pos:R:3:energy:R:1 pbc="F F F"
C        1.03215639      -3.23742033       1.39906127      36.91816330
H        1.03892146      -4.24220826       0.96167958      36.91816330
H        2.02111481      -2.98746116       1.79572819      36.91816330
C       -0.14054552      -2.84311894       2.21735532      36.91816330
H       -0.91350458      -3.61857493       2.26702183      36.91816330
H        0.09479546      -2.44046207       3.20221465      36.91816330
H       -0.62341702      -1.75134355       1.84967564      36.91816330
Rh       0.04090231      -1.78513004       0.21154645      36.91816330
C        1.81526904       0.15997778       2.60920024      36.91816330
C        3.39187001      -0.71086625       0.35930613      36.91816330
C        1.65267716       1.47546927       0.05752908      36.91816330
C       -1.31836767      -0.04777576      -2.44032634      36.91816330
C       -3.30978020      -0.86559077      -0.55709296      36.91816330
C       -1.65238003       1.34816937       0.07283112      36.91816330
P       -1.54044030      -0.33799728      -0.64574771      36.91816330
P        1.67815653      -0.19415332       0.79635973      36.91816330
C       -0.20373615      -3.01410017      -1.15980047      36.91816330
O       -0.40167818      -3.81824870      -1.97012261      36.91816330
H        0.86500417       0.59323621       2.95432277      36.91816330
H        1.96580479      -0.79759341       3.12771690      36.91816330
H        2.64277044       0.83737314       2.86708115      36.91816330
C        4.50475863       0.06476949       0.72015833      36.91816330
H        4.36515680       0.99263186       1.28052345      36.91816330
C        3.59585521      -1.86801234      -0.39908119      36.91816330
H        2.72665387      -2.45862608      -0.69661553      36.91816330
C        5.78875555      -0.32294850       0.34598989      36.91816330
H        6.64428499       0.29543183       0.63214923      36.91816330
C        4.88579831      -2.25136207      -0.77523711      36.91816330
H        5.02314950      -3.15828099      -1.37032770      36.91816330
C        6.00287636      -1.49216719      -0.40548033      36.91816330
C        7.39777549      -1.91352802      -0.78716554      36.91816330
H        7.93871050      -2.32328144       0.08267160      36.91816330
H        7.38531357      -2.68933035      -1.56593800      36.91816330
H        7.98709342      -1.06142685      -1.16046857      36.91816330
C        1.50200375       2.65720211       0.79007986      36.91816330
H        1.37790737       2.62745091       1.87264343      36.91816330
C        1.79413931       1.56453621      -1.33685741      36.91816330
H        1.93038149       0.64944169      -1.91974463      36.91816330
C        1.48368355       3.89402672       0.14213713      36.91816330
H        1.35646880       4.80449918       0.73437779      36.91816330
C        1.78393967       2.80099416      -1.97611869      36.91816330
H        1.90463025       2.84655732      -3.06240648      36.91816330
C        1.62115892       3.99112455      -1.24791997      36.91816330
C        1.55699755       5.32430141      -1.94610789      36.91816330
H        2.15722348       5.32858643      -2.86890126      36.91816330
H        0.51785077       5.56847327      -2.23157259      36.91816330
H        1.91560694       6.13849237      -1.29783553      36.91816330
H       -1.29403092      -1.03257348      -2.92730401      36.91816330
H       -2.12651386       0.55731928      -2.86977318      36.91816330
H       -0.34791432       0.44315935      -2.59192863      36.91816330
C       -3.64171565      -2.12687348      -0.05406882      36.91816330
H       -2.83837355      -2.78715216       0.28090389      36.91816330
C       -4.34544146      -0.01521310      -0.98302360      36.91816330
H       -4.11217099       0.98261090      -1.36316378      36.91816330
C       -4.97872950      -2.53007234       0.02568154      36.91816330
H       -5.21995807      -3.51742254       0.42859571      36.91816330
C       -5.67530094      -0.42192596      -0.90292339      36.91816330
H       -6.46926374       0.25631078      -1.23043361      36.91816330
C       -6.01649551      -1.68677699      -0.39106801      36.91816330
C       -7.45788355      -2.11564594      -0.29863992      36.91816330
H       -7.87215659      -2.34814726      -1.29319882      36.91816330
H       -7.57174470      -3.01313731       0.32417268      36.91816330
H       -8.08715573      -1.32202791       0.13164578      36.91816330
C       -1.64801195       2.51307503      -0.70139622      36.91816330
H       -1.53912237       2.45883569      -1.78479996      36.91816330
C       -1.76785928       1.47059998       1.46636913      36.91816330
H       -1.76135182       0.56910146       2.08520298      36.91816330
C       -1.76199690       3.76727938      -0.09773881      36.91816330
H       -1.74634665       4.66401374      -0.72335025      36.91816330
C       -1.88373609       2.72360508       2.06271403      36.91816330
H       -1.97754639       2.79609965       3.15027754      36.91816330
C       -1.87963707       3.89742728       1.29132944      36.91816330
C       -1.95252977       5.24895760       1.95225247      36.91816330
H       -2.58716710       5.22380430       2.85161226      36.91816330
H       -0.94929975       5.58350083       2.27191423      36.91816330
H       -2.35135832       6.01530183       1.27037171      36.91816330
