58
Properties=species:S:1:pos:R:3:energy:R:1 pbc="F F F"
C        4.26963511      -0.09274704      -1.24955680      44.23336029
H        4.39353978      -0.44597558      -2.28094381      44.23336029
H        4.70091019       0.91629218      -1.15880415      44.23336029
C        4.76135335      -1.03388970      -0.16700048      44.23336029
H        4.67047745      -2.08862151      -0.46510868      44.23336029
H        5.77971945      -0.86141993       0.21846797      44.23336029
H        4.11788230      -0.84936608       0.76447568      44.23336029
Rh       2.40062833      -0.37264760      -0.31250650      44.23336029
C        0.34763952       2.41584304       0.28644893      44.23336029
C        3.12841816       3.10965197       0.18620552      44.23336029
C        1.78341346       2.39464854      -2.19739444      44.23336029
C       -0.78661495      -0.76711456       1.16368467      44.23336029
C        0.99935295      -2.88839557       1.73696267      44.23336029
C        1.32871268      -0.41905984       3.11404282      44.23336029
P        0.99428037      -1.06113373       1.41754239      44.23336029
P        1.92253437       1.84017248      -0.43737262      44.23336029
C        1.87580989      -1.70837081      -1.54345119      44.23336029
O        1.41413036      -2.36765267      -2.37893087      44.23336029
C        0.27228098       2.87548998       1.61340271      44.23336029
H        1.18371694       2.98727086       2.20545540      44.23336029
C       -0.84901070       2.28980660      -0.42960086      44.23336029
H       -0.83715114       1.90799792      -1.45211686      44.23336029
C       -0.94852330       3.20014911       2.19607011      44.23336029
H       -1.00910668       3.55223467       3.22776232      44.23336029
C       -2.08029415       2.62028285       0.13715866      44.23336029
H       -2.98758249       2.48915154      -0.45052795      44.23336029
C       -2.13902085       3.06919320       1.46313972      44.23336029
O       -3.29021800       3.37551885       2.11450847      44.23336029
C       -4.50664374       3.32440181       1.39759987      44.23336029
H       -4.73780848       2.30108967       1.05454692      44.23336029
H       -5.29122398       3.65661108       2.09065454      44.23336029
H       -4.49028148       4.00102350       0.52382419      44.23336029
H        3.32409039       2.94325978       1.25541248      44.23336029
H        4.07842255       2.96977808      -0.35117761      44.23336029
H        2.77106280       4.14036143       0.03519585      44.23336029
H        1.46285422       3.44581984      -2.27626454      44.23336029
H        2.76948611       2.26762511      -2.66779344      44.23336029
H        1.07621664       1.74813948      -2.73496259      44.23336029
C       -1.66268961      -0.27962246       2.14271077      44.23336029
H       -1.29447065      -0.02611219       3.13737326      44.23336029
C       -1.29289893      -1.04912709      -0.11131013      44.23336029
H       -0.61808546      -1.39778238      -0.89480593      44.23336029
C       -3.00758845      -0.08058654       1.85282777      44.23336029
H       -3.68734459       0.32907215       2.60096834      44.23336029
C       -2.64013439      -0.86372067      -0.41375939      44.23336029
H       -2.99035225      -1.08655141      -1.42078503      44.23336029
C       -3.50258494      -0.36571547       0.57241803      44.23336029
O       -4.82106542      -0.09962364       0.36164495      44.23336029
C       -5.35945946      -0.34193730      -0.91928304      44.23336029
H       -5.27903266      -1.40751766      -1.19912170      44.23336029
H       -6.41959718      -0.06166453      -0.87207987      44.23336029
H       -4.85738703       0.26486714      -1.69463085      44.23336029
H        0.73384534      -3.41221778       0.80798958      44.23336029
H        2.00493228      -3.21468551       2.04436052      44.23336029
H        0.27053591      -3.14825407       2.52156557      44.23336029
H        0.67964456      -0.89100175       3.86860981      44.23336029
H        2.37761295      -0.63444227       3.36841105      44.23336029
H        1.18074563       0.66923201       3.13414115      44.23336029
