64
Properties=species:S:1:pos:R:3:energy:R:1 pbc="F F F"
C        0.55687764      -2.73212534       2.05771467      69.22534180
H        0.73340476      -3.64945168       1.48787077      69.22534180
H        1.41361513      -2.40964408       2.65646073      69.22534180
C       -0.76229342      -2.40449985       2.43827148      69.22534180
H       -1.59945894      -3.06188972       2.19632412      69.22534180
H       -0.91027212      -1.78006596       3.32307765      69.22534180
H       -0.35395825      -0.13397740       1.91095661      69.22534180
Rh      -0.12175619      -1.13624200       0.70474959      69.22534180
C        2.36967912       0.62246720       2.37406428      69.22534180
O        3.28635342      -0.60772489       0.26534785      69.22534180
O        1.78171337       1.47677501      -0.16361249      69.22534180
C       -0.83174014       0.88949609      -2.04890598      69.22534180
O       -2.97375273       0.00663683      -0.91298740      69.22534180
O       -1.61538674       1.78153735       0.43758643      69.22534180
P       -1.44617531       0.38927772      -0.38710360      69.22534180
P        1.83761556       0.06425216       0.70535487      69.22534180
C       -0.31907334      -2.43398002      -0.71726516      69.22534180
O       -0.54656410      -3.18531725      -1.56217561      69.22534180
H        1.61025164       1.31988889       2.75539148      69.22534180
H        2.39085586      -0.25955733       3.03073357      69.22534180
H        3.36242213       1.09408530       2.37052882      69.22534180
C        3.35002780      -1.57973661      -0.79608301      69.22534180
H        2.34623697      -1.66328143      -1.25033558      69.22534180
C        3.72604731      -2.92784897      -0.19719739      69.22534180
H        2.96707615      -3.24594782       0.53199426      69.22534180
H        4.69839689      -2.86165494       0.31771520      69.22534180
H        3.79689558      -3.69702824      -0.98283888      69.22534180
C        4.33773041      -1.07737946      -1.83721305      69.22534180
H        4.00916212      -0.11024898      -2.24577460      69.22534180
H        5.33326870      -0.93984597      -1.38534212      69.22534180
H        4.42509499      -1.79310930      -2.66958459      69.22534180
C        2.89069435       2.38574087      -0.28716189      69.22534180
H        3.81204382       1.85911676       0.01708513      69.22534180
C        2.66802676       3.60194646       0.60382293      69.22534180
H        2.56510310       3.31400085       1.65938487      69.22534180
H        1.75099290       4.13104892       0.30241241      69.22534180
H        3.51591616       4.30062467       0.52022939      69.22534180
C        3.00216355       2.75816777      -1.75933219      69.22534180
H        3.10677127       1.85584059      -2.37929856      69.22534180
H        2.09772590       3.29568904      -2.08777759      69.22534180
H        3.87434157       3.40720241      -1.93539423      69.22534180
H        0.17568283       1.30876547      -1.93036044      69.22534180
H       -0.77830843      -0.01876426      -2.66688389      69.22534180
H       -1.50530547       1.60837372      -2.53830733      69.22534180
C       -3.78167364      -0.95759650      -0.21692590      69.22534180
H       -3.10285260      -1.70130020       0.23894271      69.22534180
C       -4.65185838      -1.63455958      -1.26380161      69.22534180
H       -4.02384627      -2.11399883      -2.03009179      69.22534180
H       -5.30423838      -0.89869936      -1.76179651      69.22534180
H       -5.28670300      -2.40642636      -0.80072151      69.22534180
C       -4.56968029      -0.26829701       0.88757382      69.22534180
H       -3.88222822       0.19455871       1.61178103      69.22534180
H       -5.21521009       0.51903218       0.46453401      69.22534180
H       -5.20429294      -0.98976820       1.42569867      69.22534180
C       -2.28959161       2.95509291      -0.04945202      69.22534180
H       -2.91659079       2.67590826      -0.91430658      69.22534180
C       -1.24928994       3.98549150      -0.46942496      69.22534180
H       -0.60229231       3.59735157      -1.26873005      69.22534180
H       -0.60980519       4.24275226       0.38921045      69.22534180
H       -1.73650963       4.90495161      -0.83135029      69.22534180
C       -3.18500442       3.44385034       1.07859758      69.22534180
H       -3.92085371       2.67230066       1.34602293      69.22534180
H       -2.57511395       3.66109166       1.97005302      69.22534180
H       -3.72217169       4.36004927       0.78770240      69.22534180
