78
Properties=species:S:1:pos:R:3:forces:R:3 energy=79.97492980957031 pbc="F F F"
C       -1.60718148      -3.16850386      -0.18136031      -0.01270101      -0.01076570      -0.01144886
H       -1.18319684      -4.04426558       0.31514787      -0.00250521      -0.03501657      -0.00639911
H       -2.53155181      -2.77131744       0.24089956      -0.01941818      -0.01897018      -0.00024283
C       -1.24857471      -2.88764902      -1.49849732      -0.00421717      -0.00560430      -0.00226503
H       -0.54479859      -3.52531217      -2.03912165      -0.00780005      -0.00540589       0.01113185
H       -1.91103769      -2.28164965      -2.12366601      -0.01061854       0.00190304       0.00777928
H        0.06659924      -1.30894460      -1.63262372       0.00487270      -0.01853448      -0.00871116
Rh      -0.09139483      -1.47840067      -0.04418245      -0.02242790       0.00233677       0.00256029
O       -2.35828942       0.77179544      -1.40641635       0.01891078      -0.01726029       0.00353769
O       -3.29436749      -0.61856072       0.40280248      -0.00841858      -0.01798067      -0.00837335
O       -1.82009608       1.43570143       0.91792615       0.03743027      -0.03207643      -0.00221136
O        2.41363164       0.26358723       1.43144910       0.02866427      -0.00348600      -0.00016994
O        2.97800290      -0.40440867      -0.86774852       0.00004230      -0.01056710       0.00623832
O        1.32772274       1.51584410      -0.38193408      -0.00289287       0.00093827      -0.00333189
P        1.64376577      -0.04099246       0.02121461       0.00559620       0.00815938       0.00442600
P       -1.87700074       0.08079813      -0.01610684       0.00577608      -0.01699511       0.00161231
C        0.75594613      -2.70073450       1.15953331       0.00601669      -0.01002514       0.00384754
O        1.27577411      -3.56074160       1.73779676      -0.00299290       0.02588989      -0.01857023
C       -1.43995934       1.58717453      -2.17428091       0.02006151       0.00148597      -0.00621078
H       -0.54752970       1.78085609      -1.56079282       0.03489738       0.01626845      -0.00089858
C       -2.14331575       2.90082138      -2.47225398      -0.01141717      -0.00643240      -0.00236763
H       -2.42843893       3.40165308      -1.53519637       0.00432521       0.00821120       0.00956373
H       -3.05501349       2.72436847      -3.06642536      -0.01213082      -0.00440343      -0.02441982
H       -1.48260073       3.57204048      -3.04443647       0.01155528      -0.01709910       0.00208503
C       -1.02682571       0.82704880      -3.42595571       0.00401904      -0.00598522      -0.01790288
H       -0.50791371      -0.10209934      -3.14913280       0.00558433       0.00531489       0.00754935
H       -1.90823870       0.56946312      -4.03502974      -0.01125229      -0.00160418      -0.02156139
H       -0.34410126       1.43671376      -4.03962702       0.00160787       0.01993050      -0.00555082
C       -4.55877286       0.08365753       0.38352260      -0.00741138      -0.00352374       0.00006839
H       -4.35349390       1.16615045       0.35573992      -0.02803446       0.02037725      -0.00128048
C       -5.28054709      -0.26274299       1.67631295      -0.00898271      -0.00538664       0.01023801
H       -4.69167037       0.05716421       2.54826042      -0.00568152       0.01205641       0.01340035
H       -5.43521481      -1.35145606       1.74725921      -0.02185166      -0.01397477       0.00368130
H       -6.26371529       0.23213415       1.71654835      -0.01044511      -0.00076277      -0.00150333
C       -5.32739373      -0.32432990      -0.86427774      -0.01440935       0.00084314       0.00210964
H       -4.75168625      -0.06481557      -1.76324121       0.00793921       0.01102653      -0.00870159
H       -5.50726995      -1.41172282      -0.86094918      -0.01134595      -0.01475272       0.01234262
H       -6.30168150       0.18860464      -0.90521817      -0.01994183       0.00400621       0.00099819
C       -1.05763997       1.50783722       2.13641797       0.01282078      -0.00369004       0.01426254
H       -0.04223414       1.13213948       1.93323835       0.01557008       0.00149760       0.00721093
C       -1.69216217       0.65299181       3.22519001      -0.00795920      -0.01146163       0.01209876
H       -1.71984885      -0.40578122       2.92753162       0.00132542      -0.01927593      -0.00855162
H       -2.72066373       0.99016039       3.43121188      -0.01616970       0.01116607       0.00716956
H       -1.10815528       0.73154548       4.15616081       0.01596531       0.01184625       0.01580212
C       -0.98883096       2.98258891       2.49473647      -0.00696821       0.01327466      -0.00482319
H       -0.58421997       3.55734847       1.64999812       0.00604333       0.01253840      -0.00911753
H       -1.99417838       3.37030633       2.72466304      -0.01647055       0.01353265       0.01034037
H       -0.34100887       3.14093856       3.37082701       0.00000956      -0.01746419       0.00500149
C        3.12069879      -0.75111045       2.17664588       0.01170021      -0.00774883       0.01332735
H        3.07930950      -1.69604866       1.61334469       0.01449883      -0.02460753       0.01157979
C        2.41775100      -0.92830903       3.51367069      -0.00467883       0.00342906       0.01477594
H        1.35323941      -1.15215024       3.35486075      -0.00330607      -0.00022198      -0.00723177
H        2.49600032      -0.00643367       4.11275761      -0.00080773       0.01243734       0.01877119
H        2.86599326      -1.75789559       4.08173130       0.01514723      -0.00257153       0.00502145
C        4.57556421      -0.32395525       2.29447511       0.01263213       0.01012171       0.01433355
H        5.01429178      -0.19858833       1.29340494       0.00331175      -0.00029056      -0.00861564
H        4.65818261       0.63098665       2.83797151       0.00480948       0.01731939       0.02221318
H        5.15479143      -1.08612554       2.83981297      -0.00767408      -0.01494493       0.01193940
C        2.92597318      -1.09268360      -2.13178437       0.00174835      -0.00151843      -0.00446260
H        1.99014903      -1.67775194      -2.15747152      -0.00421174      -0.01021389      -0.01547474
C        4.11322287      -2.03697384      -2.16872863       0.01313601      -0.00671212      -0.00078653
H        4.05675598      -2.74817457      -1.33108264      -0.00931529      -0.00372654       0.01071316
H        5.05855611      -1.47617634      -2.08912575       0.02004099       0.00670412      -0.00544857
H        4.12233250      -2.60710385      -3.11094701      -0.00587420      -0.00131177      -0.02214162
C        2.91114510      -0.07032633      -3.25985118       0.00511842       0.00740195      -0.01663849
H        2.01932543       0.56912424      -3.18531037      -0.01110265       0.00631483       0.00269423
H        3.80619906       0.57117396      -3.21544619       0.01564202       0.00652638      -0.00178727
H        2.88857427      -0.57277161      -4.23954267       0.00404824      -0.01836251      -0.01345249
C        2.35861094       2.53425947      -0.43549723       0.00156743      -0.00063318      -0.00221308
H        3.32813902       2.02791470      -0.56728162       0.03480032       0.02117532      -0.00772866
C        2.37819535       3.33922101       0.85747826      -0.00627733       0.00798058       0.00716717
H        2.52634777       2.67913634       1.72129855       0.00283440      -0.00906608       0.01441512
H        1.43475963       3.88958254       0.98716972      -0.01093893       0.01545833      -0.00703443
H        3.20010365       4.07298682       0.82829365       0.00057233       0.01240813      -0.00846407
C        2.07260504       3.40225223      -1.65215006      -0.01000953      -0.00035338      -0.00714085
H        2.06783655       2.80373733      -2.57408598       0.00394743      -0.00012925      -0.01372153
H        1.09183714       3.89422224      -1.55088083      -0.00757248       0.01832907      -0.00588458
H        2.84059167       4.18593515      -1.74949293      -0.00210479      -0.00468525       0.01619058
