76
Properties=species:S:1:pos:R:3:forces:R:3 energy=63.400390625 pbc="F F F"
C       -1.28881034       1.28601446       3.32354586      -0.00888734       0.00428254       0.01733005
H       -1.50796126       0.65066879       4.18475944      -0.01514528       0.00476350       0.03313799
H       -0.77441166       2.21933082       3.56746636       0.00630393       0.00865631      -0.00553035
C       -2.05574758       1.18590244       2.14934436      -0.00829848       0.00233655       0.00296839
H       -2.90133542       0.50105786       2.08376517       0.01408844       0.00578677       0.00383565
H       -2.13791796       2.05377230       1.49271252      -0.00327108       0.01915716      -0.00119798
H       -0.04810179      -0.41297754       0.27719976      -0.01155767      -0.00487776       0.01713167
Rh      -0.09670022       0.13380183       1.78499786      -0.00119291       0.00882261       0.02104621
O       -0.56272851       2.09405059      -0.89288565       0.00787315      -0.01219800      -0.00062008
C        0.59620420       3.57707492       0.96643672       0.00639567       0.01101377       0.00641819
C        2.08240941       1.36730620      -0.56320918       0.00811194       0.00366202       0.00150572
O        0.12419219      -3.01222928       0.75853251      -0.00183801       0.00970142       0.01173323
C       -0.53347476      -3.09938918       3.32506561      -0.00356337      -0.01513196       0.00605181
C       -2.49226772      -2.34372121       1.08574528      -0.00000003      -0.00444222       0.00602031
P       -0.79658240      -2.02892399       1.81038086      -0.00523395       0.00005042       0.01031807
P        0.53473978       1.80119802       0.37771598       0.00228358       0.00203298       0.01304314
C        1.48428208      -0.17117028       2.80375385       0.02190397      -0.01638211       0.02442555
O        2.36808911      -0.36572550       3.52532631      -0.02275025      -0.00359396      -0.01630738
C       -1.48655328       1.18762137      -1.33934683       0.00014655      -0.00098162      -0.00265638
C       -2.84317823       1.43398715      -1.10464169      -0.00002803       0.00665328       0.00399066
H       -3.12979742       2.33408702      -0.56016903      -0.00108738       0.01017316       0.01512812
C       -1.10477127       0.05114390      -2.06249017       0.00431782      -0.00466522      -0.01040697
H       -0.04991403      -0.13234840      -2.26160756       0.00060393      -0.01104767      -0.02726648
C       -3.81166034       0.53088380      -1.54273143      -0.00862946       0.00178251       0.00256561
H       -4.86960185       0.71236986      -1.34714822      -0.02026682      -0.00397148      -0.00541011
C       -2.06917551      -0.85638499      -2.50513448      -0.00580804      -0.00279333      -0.00523317
H       -1.78042209      -1.74913396      -3.06225380      -0.01226727      -0.00650411      -0.00741385
C       -3.41734721      -0.62099965      -2.22884539      -0.01209294      -0.00187686      -0.00521834
Cl      -4.62495993      -1.78825114      -2.73028994      -0.02541048      -0.00336053      -0.00912250
H       -0.44670711       3.69124176       1.31411032       0.00267795      -0.00194916       0.00741970
C        1.51320916       3.74259146       2.18261126       0.01233881       0.01099380       0.00340036
H        1.30910452       4.70691939       2.67533470      -0.01045409       0.01177309      -0.00400711
H        1.35934441       2.94020662       2.91912463      -0.00798783      -0.01056266       0.00925939
H        2.57378728       3.73763727       1.89291940       0.00925549       0.01782908      -0.01522629
C        0.84836222       4.62286677      -0.12262397       0.00497025       0.00307836      -0.00539440
H        0.21041569       4.44840761      -1.00011623      -0.01130706      -0.00235701       0.00066039
H        0.63002927       5.63076647       0.26783663       0.00673874       0.00256122       0.01248465
H        1.89909859       4.61675377      -0.44883469       0.01449734       0.01594866      -0.01280946
H        1.90430440       0.29491843      -0.73338696       0.01365060       0.00004992      -0.00979801
C        2.25511394       2.03329344      -1.93129779       0.00765893       0.00746919      -0.00177607
H        3.04949091       1.50605123      -2.48464108       0.01196431      -0.00207350       0.00732144
H        1.33283170       1.99088341      -2.52709512       0.00259145      -0.00559117      -0.00783060
H        2.55144546       3.08831098      -1.84297823       0.01545855       0.00818198       0.00359092
C        3.34831654       1.48316588       0.28935058       0.00888184       0.00635201      -0.00123144
H        3.23554696       1.00529815       1.27185219      -0.00387988      -0.00511351      -0.00592628
H        4.17971940       0.98176178      -0.23076968       0.00508499       0.00165579      -0.01805305
H        3.63857069       2.53356692       0.44449371       0.01056192       0.01466194      -0.00182733
C        1.22904946      -2.63001420       0.05052332      -0.00406668      -0.00297966      -0.00408352
C        1.14135046      -2.51287579      -1.34113506      -0.00760140       0.00272725      -0.01428912
H        0.18713997      -2.71663210      -1.82714222       0.00260895       0.00958600      -0.03977868
C        2.45305033      -2.40042182       0.68940029       0.00060064      -0.01181409      -0.00204301
H        2.52745976      -2.50990044       1.77063479       0.00365099      -0.01967738       0.00379382
C        2.25512817      -2.12503911      -2.08867629       0.00355854       0.00321857      -0.00546158
H        2.19080412      -2.01831188      -3.17280144       0.01402398       0.01041740      -0.00649402
C        3.56528142      -1.99605561      -0.04837780       0.00773915      -0.00193891      -0.00133651
H        4.51259698      -1.78657742       0.45008144       0.01404064       0.00508284      -0.00296770
C        3.45650587      -1.84305243      -1.43281324       0.00977584       0.00424815      -0.00451503
Cl       4.82734505      -1.24801716      -2.34501323       0.02476288       0.00303823      -0.00183779
H        0.56405341      -3.00843858       3.42084877       0.00259569      -0.00201107       0.00232847
C       -1.15370162      -2.49773468       4.58714222      -0.01419448      -0.01297565       0.00596090
H       -0.80039640      -3.04786562       5.47444062       0.01528493      -0.01657339      -0.00266369
H       -0.86656286      -1.44256495       4.70365167       0.01232629       0.00944914      -0.00216486
H       -2.25163293      -2.55913531       4.57685331      -0.01841155      -0.02052215      -0.00738539
C       -0.86792847      -4.58057903       3.12981786      -0.00360403      -0.01583542      -0.00885139
H       -0.41320929      -4.97403198       2.20999732       0.01224179      -0.00913569      -0.00425901
H       -0.48359711      -5.16724696       3.98091133      -0.00225384      -0.00933413       0.01475580
H       -1.95462410      -4.74863443       3.07986511      -0.01638812      -0.02360157      -0.01067879
H       -2.55728761      -1.49978223       0.38060280       0.00314562      -0.00328691      -0.00091741
C       -2.66877785      -3.63474610       0.28099033       0.00047838      -0.00731576       0.00287109
H       -3.62211428      -3.58455796      -0.27021970      -0.00311073       0.01039958       0.01107204
H       -1.86133395      -3.76702916      -0.45030022      -0.00285283      -0.00407997      -0.01519146
H       -2.69044953      -4.52582184       0.92489394      -0.01661710      -0.01065120       0.00354819
C       -3.59325417      -2.16857653       2.13586389      -0.00401484      -0.00151478       0.00065995
H       -3.42921393      -1.29280969       2.78071436       0.00239710       0.00853777      -0.00197985
H       -4.56512466      -2.03216159       1.63408788       0.00076216      -0.00566118      -0.01728603
H       -3.67671031      -3.05404832       2.78430115      -0.00234095      -0.01235472      -0.00190993
