62
Properties=species:S:1:pos:R:3:forces:R:3 energy=68.12080383300781 pbc="F F F"
C        1.44372568      -2.94141912       0.28392480       0.01029197      -0.01573092       0.00780639
H        1.44685218      -3.63675613      -0.55943290      -0.00839770      -0.02074010      -0.00369077
H        2.44229725      -2.62773071       0.59458528       0.02376365      -0.00435718       0.00296000
C        0.42092213      -3.05267557       1.27500681       0.00054646      -0.00243915       0.00809952
H       -0.35472102      -3.81202471       1.14621854       0.00841095      -0.00282625      -0.01871992
H        0.69529618      -2.87354667       2.31688173       0.01230539       0.01247413      -0.00289017
H       -0.41743483      -1.63609640       1.41161054      -0.01352349      -0.01321663       0.00538928
Rh       0.07938002      -1.29755322      -0.12524759       0.01544756      -0.00266157      -0.00184877
O        1.39210936       1.38250773       1.67781933      -0.00546273      -0.02927431      -0.00850302
C        3.41269383      -0.14678621       0.66930801       0.00065479      -0.00563746      -0.00162241
C        1.83791011       1.67324966      -0.90107149      -0.00021438       0.00005295       0.00057816
O       -1.32425014       1.26144847      -1.58967616      -0.01260428       0.00220815       0.00366463
C       -3.31042891      -0.46657836      -0.72913733      -0.00833708      -0.00278640      -0.00560304
C       -1.92687793       1.35632520       1.08733467      -0.00279006       0.00085003       0.00502134
P       -1.62981505       0.20713510      -0.32911001       0.00073700       0.00325033      -0.00209118
P        1.64445989       0.33828567       0.36557779      -0.00120247      -0.01642641      -0.00478515
C       -0.36716084      -2.07445127      -1.80511449      -0.00290168      -0.00261096      -0.00535880
O       -0.69882478      -2.57386460      -2.79582558      -0.00392626       0.00088001       0.01692110
C        1.08680394       0.82869413       2.93952980       0.00052002      -0.01264561      -0.00281646
H        0.32338643       0.03337303       2.85825049      -0.00707238      -0.00722502       0.01451755
H        1.98395085       0.40207364       3.42618129       0.00332759      -0.00090305       0.00422557
H        0.69822881       1.63653951       3.57856814       0.01231163       0.01413847      -0.03413535
H        3.95378992       0.72282024       1.07634389      -0.01162978       0.01398333      -0.01224767
H        3.39813838      -0.90970387       1.46644989      -0.00079052      -0.00606441       0.00705819
C        4.10641160      -0.70273319      -0.57968623       0.00539777      -0.00443690       0.00120474
H        4.30685461       0.12464748      -1.28099140       0.00951712       0.00484452       0.00304153
H        3.41564521      -1.38205304      -1.10814049      -0.00068453      -0.01073755      -0.00106612
C        5.40892708      -1.43680517      -0.26342566       0.00736037      -0.00357341       0.00404415
H        6.12791439      -0.77722262       0.25055012       0.01335722      -0.00065824       0.00320443
H        5.22499223      -2.30320922       0.39399298       0.00662522      -0.00900422       0.00581056
H        5.89174844      -1.81089662      -1.18064176      -0.00724584       0.00719981      -0.00966201
H        2.11099342       1.14957206      -1.83299964       0.00797226      -0.01408475       0.00164653
H        0.82130869       2.05610877      -1.07643457      -0.00228654       0.00296958       0.01772169
C        2.81181554       2.80830798      -0.58259013       0.00280838       0.00252703       0.00367981
H        3.83481696       2.40949859      -0.47274979       0.00934938       0.00542497      -0.00201527
H        2.54427929       3.24199715       0.39402976       0.00431689       0.02066991       0.00664708
C        2.81002929       3.89394920      -1.65940805      -0.00153273      -0.00039355      -0.00276849
H        3.10097963       3.48526663      -2.64187698       0.00270587       0.00298741      -0.00637195
H        1.80691151       4.33853038      -1.77289444      -0.00225529       0.00675113      -0.00297717
H        3.51117387       4.70815009      -1.41349742       0.00154372      -0.00676882       0.00855663
C       -2.28098739       1.81124453      -2.47202461      -0.00670685      -0.00308409       0.00137983
H       -2.73577038       1.03835740      -3.11494714      -0.00993131      -0.00456910      -0.00414820
H       -3.08683558       2.34988529      -1.94536359      -0.01536637       0.00184606      -0.00588079
H       -1.74810074       2.52731583      -3.11540913       0.01969375      -0.00606567       0.01807503
H       -4.01067687       0.35424047      -0.95378203      -0.00482286       0.01718444       0.00560623
H       -3.18464242      -1.05357228      -1.65408979      -0.00819546      -0.00842123      -0.01467332
C       -3.86969678      -1.35395613       0.38612184      -0.00820601      -0.00074013       0.00151055
H       -4.09336156      -0.73421638       1.27211695      -0.01354429       0.00424892       0.00649528
H       -3.08840090      -2.06797678       0.69691899      -0.00053651      -0.00287590      -0.00369836
C       -5.12649316      -2.11045439      -0.04334541      -0.01007307      -0.00724194      -0.00269871
H       -5.92934730      -1.42030970      -0.35300690      -0.00999485       0.00368594      -0.00343183
H       -4.91221335      -2.77499813      -0.89674111      -0.00245784      -0.00911080      -0.00948707
H       -5.51773442      -2.73431422       0.77615361       0.00438177       0.00032729       0.01376230
H       -2.14865029       0.70786812       1.95247575      -0.01031355      -0.01186157       0.00198453
H       -0.94273053       1.80678558       1.28914887       0.00233988      -0.00544430      -0.01985702
C       -2.99331401       2.44040027       0.92346944      -0.00490264       0.00445648      -0.00068663
H       -3.96808712       1.98815118       0.67076110      -0.01178057       0.00371147       0.00068973
H       -2.72344815       3.09134264       0.07571007      -0.00669305       0.02291964      -0.00013461
C       -3.14731052       3.29726760       2.18138621       0.00459445      -0.00018155       0.00552096
H       -3.44293970       2.68260104       3.04809286      -0.00313852      -0.00026193       0.00902278
H       -2.19889968       3.79708380       2.43906757       0.00615495       0.00741355       0.00401329
H       -3.91359210       4.07791957       2.04785949       0.00016684      -0.00804742      -0.01596621
