96
Properties=species:S:1:pos:R:3:forces:R:3 energy=96.96018981933594 pbc="F F F"
C        0.73781064      -2.55745600      -2.14831307       0.00884257      -0.00116781      -0.00058545
H        1.02240288      -3.60733578      -2.01375724       0.01409200      -0.00084691       0.00596522
H       -0.09569042      -2.49823353      -2.85716448      -0.00023262      -0.00394780       0.00211739
C        1.85296233      -1.58785490      -2.38062469       0.00434939      -0.00282621      -0.00565298
H        2.84268227      -2.04973644      -2.28913255       0.00786538       0.00407571      -0.00662111
H        1.76960689      -0.98668987      -3.28953481      -0.00754744      -0.00946499      -0.00476503
H        1.77248754      -0.64940537      -1.63591372       0.01118737      -0.00277845       0.00015000
Rh       0.68998500      -1.41681694      -0.37459132       0.00182685       0.00347684       0.00070425
C       -1.01173206       0.43099419      -3.03112186       0.00186665       0.00160296       0.00262140
C       -2.59856331      -1.44012718      -1.41271754      -0.00373088      -0.00023004      -0.00373823
C       -1.86509318       1.11947898      -0.26605868      -0.00153580      -0.00011455       0.00053181
C        0.83361853      -0.89558533       3.02672299      -0.00271692       0.00584697      -0.00453425
C        3.28045872      -0.13758396       1.66791529      -0.00592623      -0.00500777      -0.00374147
C        0.97775537       1.64353569       1.68212247       0.00098810      -0.00244929       0.00300922
P        1.42644176      -0.13726317       1.42940521      -0.00361349      -0.00015194      -0.00189577
P       -1.17845986      -0.25572945      -1.29106594       0.00281662      -0.00292953      -0.00696409
C        1.07079699      -2.94565030       0.58099379       0.01007139      -0.01342960       0.00796486
O        1.39414711      -3.92000096       1.12170372      -0.01316004       0.02235651      -0.00911292
H       -0.41688220      -0.35015011      -3.53484198      -0.00140614       0.00291996       0.00331006
C       -2.29670727       0.60698123      -3.84792847       0.00288326       0.00463393      -0.00152638
H       -2.04369821       0.93290027      -4.87163553       0.01105958       0.00947089       0.00002623
H       -2.86302846      -0.33145645      -3.93560457      -0.00159527       0.00662575       0.00115447
H       -2.96620553       1.36683980      -3.41998083       0.00365698      -0.00221215       0.00035995
C       -0.16579354       1.70819655      -3.01878614      -0.00008692      -0.00164184      -0.00047579
H        0.78349753       1.55867420      -2.48264540       0.00123270       0.00999263       0.00217367
H        0.07488715       2.02528977      -4.04693036      -0.01257387      -0.00912120      -0.00522576
H       -0.69821684       2.54478002      -2.53684179       0.00240794      -0.00155072      -0.00129645
H       -3.50193993      -0.93311283      -1.78726313       0.00020279       0.00477677      -0.00138684
H       -2.31149171      -2.19024050      -2.16789332      -0.00902046       0.00141611      -0.00210146
C       -2.87403464      -2.13146440      -0.07803374      -0.00265572      -0.00300838      -0.00179548
H       -1.92783208      -2.56350422       0.28758601      -0.00746837       0.00375261       0.00103377
H       -3.17627357      -1.37934180       0.67337394       0.00817371      -0.00227074      -0.00036327
C       -3.94155808      -3.21855060      -0.15937405      -0.00101049      -0.00283998       0.00486408
H       -3.62543491      -3.98059810      -0.89569552      -0.01233691       0.00272529       0.00241299
H       -4.88300703      -2.79084499      -0.55264530       0.00634651      -0.00735796       0.00263380
C       -4.21073572      -3.89281476       1.18581055      -0.00396929      -0.00480974      -0.00241446
H       -3.26548207      -4.31515050       1.57226549      -0.01202012       0.00342340       0.00225004
H       -4.51652655      -3.12487511       1.92000900       0.00227351      -0.01251924      -0.00206664
C       -5.27471265      -4.98533929       1.10948229       0.00039550      -0.00254704       0.00514481
H       -5.45549819      -5.44936258       2.09201383      -0.00048986       0.00024263       0.00270476
H       -4.97338163      -5.78526739       0.41227660      -0.01292791       0.00472208       0.00343778
H       -6.23541642      -4.58056227       0.74806825       0.00725880      -0.01187259      -0.00125083
H       -1.88011375       0.70979450       0.75658325       0.00595531      -0.00336807      -0.00744557
H       -1.09476104       1.90217937      -0.25719430       0.00333362      -0.00594621      -0.01911841
C       -3.22301302       1.72752176      -0.60202359      -0.00169741       0.00365550       0.00297735
H       -3.18512585       2.21864642      -1.58759090      -0.00639500      -0.00255413       0.00530039
H       -3.98640009       0.93507379      -0.68527822      -0.00449345       0.01285220      -0.00441502
C       -3.67388495       2.74863588       0.44321195      -0.00691188       0.00705784      -0.00020842
H       -2.90905480       3.54291260       0.53078492      -0.00292416      -0.00845169       0.00324333
H       -3.71040100       2.26025862       1.43513542       0.00430482       0.00712841      -0.00736879
C       -5.03174174       3.37885940       0.13497720      -0.00163546       0.00679539       0.00702301
H       -4.98754345       3.86150823      -0.85849492      -0.00570714      -0.00420264       0.01035062
H       -5.78738211       2.57727653       0.04379316       0.00437632       0.01218255      -0.00027627
C       -5.48251280       4.39440978       1.18235300      -0.00363659       0.00087629      -0.00172987
H       -6.46164461       4.83087030       0.92867181       0.00066456      -0.00324625      -0.00399413
H       -4.75982639       5.22317009       1.27010212      -0.00477418      -0.00929303       0.00540322
H       -5.57136797       3.92836406       2.17800877       0.00560809       0.00917213      -0.00482001
H        1.22047599      -1.92560061       2.95549950      -0.00393474       0.00982813       0.00358379
C        1.37909008      -0.25540297       4.30054533      -0.00315564       0.00186324       0.00278747
H        1.06707344      -0.84833393       5.17491695      -0.00678535      -0.00465089      -0.00981303
H        2.47753384      -0.20305468       4.31035271      -0.00636486       0.00892032       0.01387811
H        0.98600927       0.76405984       4.44014614       0.00622100      -0.00238672       0.00896071
C       -0.69573094      -0.97232158       3.04945215      -0.00195717       0.00044947       0.00622861
H       -1.08720863      -1.44992132       2.14058178      -0.00354456       0.00543165       0.00709549
H       -1.02942360      -1.55480611       3.92283587       0.01419292       0.00438419       0.00975771
H       -1.14707829       0.03071754       3.13379963      -0.00581738      -0.00456143       0.00284572
H        3.54782070       0.54639318       2.49225755      -0.01875140      -0.00369313      -0.00298094
H        3.53813864      -1.15814689       1.99975693      -0.00273631       0.00336625      -0.00257253
C        4.06893496       0.20279130       0.40277336       0.00119448      -0.00332100       0.00130820
H        3.65243248      -0.38185671      -0.43174541       0.01094660       0.00588582      -0.00188811
H        3.91549339       1.26262695       0.13847310      -0.00456530      -0.00875014      -0.00198748
C        5.57044816      -0.07619355       0.48933451      -0.00001457      -0.00166140      -0.00204313
H        5.72905846      -1.13871488       0.75037616       0.00743652       0.00707013       0.00215344
H        6.02786107       0.50940903       1.30868242      -0.00315063      -0.00939408      -0.00592706
C        6.28347483       0.23604066      -0.82874202       0.00384972      -0.00233366       0.00344535
H        5.78618173      -0.32712706      -1.63935377       0.00562716       0.00948189       0.00276707
H        6.13395851       1.30344916      -1.07393537       0.00679150      -0.01089885      -0.00129192
C        7.77503720      -0.08922614      -0.81903163      -0.00097956       0.00073730      -0.00570393
H        8.24919850       0.15225783      -1.78393143      -0.00045252       0.00234477      -0.00298735
H        7.94560510      -1.16059770      -0.62140052       0.00366021       0.01176948       0.00316549
H        8.30236224       0.47964879      -0.03514938      -0.00119666      -0.01304548      -0.00442005
H       -0.11251184       1.64265126       1.83032008      -0.00195558      -0.02062733      -0.01051319
H        1.42542749       1.97845466       2.63070753       0.01226889      -0.01896810       0.00589880
C        1.33976184       2.61383523       0.55845973      -0.00368690       0.00071078       0.00210836
H        2.43308336       2.75313438       0.51951148      -0.00703295      -0.00453374      -0.00975311
H        1.06313043       2.17454980      -0.41364911       0.01275739       0.00260518       0.00331004
C        0.66631712       3.97995969       0.71586332      -0.00389749       0.00405923      -0.00401781
H        0.96550922       4.43174270       1.67985207      -0.00447367      -0.00840043      -0.00748817
H       -0.42874281       3.84068200       0.78364361       0.01188692       0.00354562       0.00950610
C        0.98133798       4.94499534      -0.42782183      -0.00610749       0.00554390       0.00044436
H        2.07392069       5.10377369      -0.47568984      -0.01292011      -0.00131106      -0.00123765
H        0.70778244       4.46523331      -1.38478966       0.00411572       0.00752742       0.00438138
C        0.26875028       6.29126801      -0.30877408       0.00037370       0.00119128      -0.00457265
H        0.51744888       6.95612424      -1.15142655       0.00517693      -0.00695274      -0.00318293
H        0.54991370       6.81323938       0.62157032      -0.00906531      -0.00503583      -0.00679071
H       -0.82693130       6.16379480      -0.29594195       0.00842109       0.00166755       0.00608863
