80
Properties=species:S:1:pos:R:3:forces:R:3 energy=83.50508880615234 pbc="F F F"
C        3.93018285       0.29614477      -0.32230683       0.01929563      -0.00149869       0.00099575
H        4.41995042      -0.02275431      -1.24570709       0.03097476      -0.00869627       0.00336488
H        4.07130972       1.35452247      -0.08994490       0.00063829       0.01173279      -0.00055427
C        3.86033519      -0.62587944       0.77291600       0.00928928      -0.00015399       0.00281241
H        4.19417747      -1.65672281       0.62427879       0.01855423      -0.00958125       0.00876062
H        4.06705126      -0.25794900       1.78380791       0.00763658       0.00660602      -0.01145057
H        2.31523333      -0.45879958       1.28355268       0.00273800       0.01177093       0.00006934
Rh       1.88913063      -0.43010670      -0.28998010       0.01596247       0.00349453      -0.00326669
O       -0.26806726       1.52149716       1.41352864      -0.00300139       0.00749614      -0.00229563
C        1.95208596       3.05748081       0.51431111       0.01277196       0.01077369      -0.00783759
C       -0.38057180       2.24831400      -1.27035250      -0.00341844       0.00097056      -0.00464819
O       -1.39351940      -1.42726916      -0.42966424       0.00430745       0.00451824       0.00066551
C        0.29672997      -3.58136277      -0.30217483       0.00552235      -0.01342994       0.00312705
C       -0.44669117      -1.72808144       2.02327081       0.00472102      -0.00787085       0.00349037
P        0.10802976      -1.80853678       0.25428517       0.00531207      -0.00418160       0.00748129
P        0.77121435       1.65314551       0.09356625       0.00843690       0.01031077       0.00018082
C        2.07405492      -1.18745262      -2.02522638       0.00472135      -0.00762334      -0.02211931
O        2.26732411      -1.71448051      -3.03936817      -0.01202569      -0.00051367       0.01743910
C       -1.19931561       2.45493871       1.95513251       0.00487119       0.00817635      -0.00493713
H       -1.07380045       2.40588610       3.05174443       0.01578850      -0.00934394       0.00314557
H       -0.95996934       3.48320166       1.65451511      -0.00736302       0.02805360       0.00081071
C       -2.65188124       2.14585009       1.60596360      -0.00490814       0.00138356      -0.00270789
H       -3.26809498       2.89918288       2.13257705      -0.00086858       0.00594131       0.00908788
H       -2.82769310       2.31615526       0.52983957      -0.01821894      -0.00281299      -0.01397077
C       -3.12150755       0.74021429       1.98030831      -0.00460715      -0.00521661       0.00526890
H       -2.80489706       0.51164522       3.01395197      -0.00776735      -0.00790905       0.02094753
H       -2.60838510       0.01458108       1.33313597      -0.00434563      -0.01168134      -0.02170936
C       -4.63454847       0.56116641       1.85870426      -0.01388031       0.00179320      -0.00209142
H       -5.17753215       1.23638721       2.54194117      -0.01496713       0.00514004       0.00997976
H       -4.98559924       0.77866415       0.83690727      -0.00817914      -0.00303191      -0.01202701
H       -4.93639069      -0.47074102       2.09950556       0.01229503      -0.00928234       0.00221354
H        2.70193730       2.50976649       1.11072624       0.00467964      -0.00056038      -0.00698549
C        2.64529999       3.54398075      -0.76555200       0.00696663       0.01608510      -0.00893615
H        3.56960705       4.08851562      -0.51157548       0.00747276       0.01814380       0.00808267
H        2.92039891       2.70900957      -1.42621567       0.00902088      -0.00709884       0.00357362
H        2.00292675       4.23163551      -1.33512806      -0.00492860       0.01900097      -0.00087477
C        1.47564236       4.22857839       1.37613901      -0.00369776       0.00335679       0.00073730
H        1.09317804       3.89328248       2.35048990       0.00352655      -0.00734007       0.01216557
H        2.32468370       4.90509341       1.57496175       0.00118495       0.00131900      -0.01600216
H        0.69461784       4.82659288       0.88279969      -0.00529558       0.01305703      -0.00666966
H       -1.21743181       1.55101695      -1.10118847      -0.00023594      -0.00853001       0.00726403
C       -0.92026673       3.68221112      -1.21777526       0.00365990       0.00921680      -0.00518005
H       -1.67923432       3.81897726      -2.00726372      -0.00138970      -0.00602329      -0.00657401
H       -1.39849300       3.93613518      -0.26393746      -0.00010598       0.00203497       0.00378463
H       -0.12595217       4.41977822      -1.40486655       0.01028018       0.01201217      -0.01205233
C        0.19193912       1.95177959      -2.66220733      -0.00111282       0.00754203      -0.00570647
H        0.61299012       0.94008048      -2.72041417      -0.00600542      -0.00198403       0.00609825
H       -0.60240517       2.04640150      -3.42160370      -0.01763795       0.00735772       0.00174094
H        0.99121180       2.65822755      -2.93263552       0.00346879       0.01581938      -0.00521815
C       -1.54413520      -1.40051447      -1.84817755       0.00240011      -0.00459429      -0.00275892
H       -0.90010931      -0.61497100      -2.27824332      -0.00016659       0.01223741      -0.01717132
H       -1.21657146      -2.36148877      -2.28338399      -0.01897725      -0.01995330      -0.02111068
C       -3.00575695      -1.16750874      -2.20285638      -0.00677147      -0.00330341       0.00369212
H       -3.11662116      -1.32897950      -3.29074311       0.00578236       0.00816150      -0.00572944
H       -3.61415999      -1.94641503      -1.70931153      -0.02125823      -0.00742478      -0.00450609
C       -3.53940352       0.21678442      -1.83484063      -0.01137779       0.00717754      -0.00105455
H       -2.96735185       0.98281197      -2.38758674      -0.00819255       0.00561408      -0.01651524
H       -3.34252866       0.39681174      -0.76806969       0.00087524      -0.00474953       0.01094706
C       -5.03026141       0.38996456      -2.11969144      -0.01718688      -0.00026566      -0.00660859
H       -5.25925005       0.24535908      -3.18916834      -0.01454941       0.00551375      -0.01699258
H       -5.63330335      -0.33806393      -1.55150503      -0.01267432      -0.00404848       0.00773872
H       -5.37856122       1.39748136      -1.83912520       0.01210209       0.00948562       0.00275027
H        0.55014024      -3.43616615      -1.36754550      -0.00431420      -0.00602747      -0.00922685
C        1.51493746      -4.23273762       0.35772609       0.00675742      -0.01710573       0.01028229
H        1.78188117      -5.16291729      -0.16958336      -0.00694457      -0.02540378      -0.00573832
H        2.38662067      -3.56124094       0.33292225      -0.00139748       0.00736084      -0.00681376
H        1.30991746      -4.49604505       1.40721347      -0.00623547      -0.01486275       0.01816877
C       -0.95131676      -4.46543618      -0.23012812      -0.01009297      -0.01307056       0.00918731
H       -1.84488388      -3.95420939      -0.61536675      -0.00386608      -0.00061969      -0.00971523
H       -0.79637666      -5.37915632      -0.82812080       0.00637887      -0.01210838       0.00143473
H       -1.16667253      -4.78113339       0.80000309      -0.00444852      -0.01959691       0.01799440
H       -0.66710281      -0.65064963       2.08571707       0.00652905      -0.00171638       0.00544901
C       -1.70959199      -2.51959179       2.37404100       0.00090180      -0.00851294       0.00171567
H       -2.10665278      -2.16547725       3.34018146       0.01268655       0.00395230       0.00073088
H       -2.49635678      -2.39986480       1.61737097      -0.00416584       0.00035483      -0.00235263
H       -1.49449872      -3.59241849       2.48747142       0.00515313      -0.00636533       0.01023764
C        0.68664192      -2.01361734       3.01189068      -0.00086796      -0.00717065       0.00777919
H        1.59888576      -1.45931622       2.75160472      -0.00395823       0.00686950       0.00253002
H        0.38177626      -1.70303104       4.02416705      -0.01780582      -0.00419015       0.00590233
H        0.93752813      -3.08483654       3.05494849      -0.00386882      -0.01689360       0.00602425
