86
Properties=species:S:1:pos:R:3:forces:R:3 energy=83.08672332763672 pbc="F F F"
C       -1.36624081      -0.10169446       3.14893443      -0.00231184      -0.00993191       0.01708588
H       -0.96551363       0.45925097       3.99845387      -0.00824809       0.00072902       0.03980704
H       -2.41532389       0.13165424       2.94972700      -0.00731131      -0.00165218      -0.00668651
C       -0.94895452      -1.47386890       2.95368359      -0.00285455      -0.01495664       0.01709633
H       -0.16127748      -1.83867892       3.62474037       0.00872615      -0.00515877       0.02236626
H       -1.72284603      -2.23243618       2.79902821      -0.01169868       0.01337998       0.00946859
H       -0.67050126      -1.60676179       1.52644654      -0.01086193      -0.00607877       0.00049115
Rh      -0.02394174      -0.05646476       1.45708509      -0.01119820       0.00161557       0.01628188
C       -2.82985838      -0.17660737      -0.83186449      -0.00123463      -0.00002377       0.00690338
C       -2.82673229       2.10531962       1.12232385      -0.00752212       0.00676655       0.00786742
C       -1.26183927       2.21448968      -1.34336367       0.01072555      -0.00184698       0.00022154
C        2.63290608       0.38135748      -0.96724178       0.01004255      -0.00148693       0.00326732
C        2.84198204      -2.09307388       0.66363699       0.00494502      -0.01363895       0.00141170
C        0.71842329      -1.83509371      -1.53311845       0.00132336      -0.00275903      -0.00076150
P        1.57814187      -0.93841236      -0.12063759      -0.00758920      -0.00180977       0.00309066
P       -1.66605533       1.00431260       0.05915660       0.00295438       0.00455566      -0.00344740
C        1.28586224       0.76916338       2.55039829       0.00554492       0.01185191      -0.00852211
O        2.06452303       1.08540461       3.34982463       0.00611940      -0.00420543       0.00167869
H       -2.10495400      -0.72680011      -1.46150662       0.01544072       0.01479263      -0.00371374
C       -3.92526626       0.35258020      -1.77317477      -0.00763468       0.00053950       0.00520974
H       -3.53273659       1.10750950      -2.47090686       0.01288600      -0.01538414      -0.01384100
H       -4.71059360       0.84935956      -1.18188297      -0.02501991      -0.00244924       0.01319117
C       -4.57320086      -0.79717359      -2.55718945       0.00216624      -0.00792359      -0.00383418
H       -5.35769719      -0.40313388      -3.22559510      -0.01312854       0.00244892       0.01425081
H       -3.81393195      -1.26732404      -3.20961742       0.00970641      -0.02033474      -0.01118686
C       -5.15657227      -1.85295670      -1.61343848      -0.01024818      -0.00124622      -0.00002230
H       -5.58807904      -2.68968021      -2.18819441       0.00249249      -0.01138398      -0.01102672
H       -5.98995109      -1.40280040      -1.04284254      -0.01820862       0.00794527       0.00756407
C       -4.09748026      -2.36372539      -0.63252279       0.00263729      -0.00779131      -0.00707145
H       -3.32122319      -2.91871137      -1.19093273       0.01177596      -0.01310096      -0.01662037
H       -4.54220268      -3.08073717       0.07789544      -0.02092593       0.00683763      -0.00118684
C       -3.42717403      -1.21513215       0.12902160      -0.00430113      -0.00183722       0.00655373
H       -4.17274700      -0.72549863       0.78199715      -0.03454204      -0.00222974      -0.00327838
H       -2.63634068      -1.60463981       0.78310376       0.01222230      -0.01028582      -0.00976608
H       -3.42130514       1.34373760       1.65295140      -0.01785202       0.00162278       0.01122678
C       -2.04863656       2.91054615       2.17748049      -0.00284506       0.01072488       0.00583049
H       -2.70506731       3.16076713       3.02750699      -0.02167625       0.01473705       0.00214157
H       -1.17801280       2.36205207       2.55550776       0.00352186      -0.00301468       0.00498922
H       -1.68665339       3.86238929       1.75960584      -0.00024123       0.02022742       0.00471332
C       -3.80376498       3.03814627       0.39723545      -0.00825338       0.01265772      -0.00080691
H       -4.44316558       2.52650421      -0.33132063      -0.01283498      -0.00349455      -0.00253597
H       -4.46657096       3.51746002       1.13844427      -0.00766015       0.00649339       0.01606816
H       -3.27637687       3.85044770      -0.12612653      -0.00121844       0.01714150      -0.00098986
H       -2.22695013       2.66403410      -1.62431199      -0.00158184      -0.00420175       0.00949690
C       -0.33728469       3.33482236      -0.85911332       0.00981900       0.00388005      -0.00055643
H       -0.06733091       4.00148226      -1.69516662      -0.00666634      -0.00741183      -0.01414537
H       -0.80432275       3.95132292      -0.07984795      -0.00399118       0.00976563       0.00039736
H        0.59041886       2.92470866      -0.43696142       0.01869857       0.00017889      -0.00174640
C       -0.69483515       1.54243841      -2.59542381       0.00655860      -0.00308620      -0.00217136
H       -1.35470494       0.76347158      -3.00208581      -0.01459247       0.00332756       0.00096730
H       -0.54726310       2.29656502      -3.38695786      -0.00208232       0.01184814       0.00762633
H        0.28269486       1.08511588      -2.39718121       0.01647692       0.00268506       0.00312963
H        1.95200036       0.76449965      -1.74542363       0.00471056      -0.00063599       0.00550542
C        3.93223860      -0.06084397      -1.66211159       0.00737767      -0.00278740       0.00053597
H        3.75656977      -0.88259241      -2.36660815      -0.00639342       0.01070822      -0.01764700
H        4.63655436      -0.43778170      -0.90152610       0.01913599       0.00622442       0.01655876
C        4.59914213       1.10559238      -2.40388235      -0.00091950       0.00757961      -0.00617544
H        5.52879744       0.75484044      -2.88320594       0.01209125       0.00240494       0.01613407
H        3.93579166       1.44403354      -3.22140882      -0.00721359       0.02020543      -0.01121224
C        4.88826396       2.28157804      -1.46951013       0.01202868       0.00426795      -0.00014939
H        5.32855067       3.12386550      -2.02915153       0.00248729       0.01334997      -0.01483749
H        5.64280575       1.97314632      -0.72252650       0.01523058      -0.00620432       0.01040190
C        3.61518576       2.71988188      -0.74372754       0.00512223       0.00695226      -0.01098450
H        2.90555142       3.14396921      -1.47869279       0.00278810       0.00984965      -0.02526370
H        3.83379126       3.52595272      -0.02394265       0.01854542      -0.01122075       0.00470193
C        2.94066853       1.55250564      -0.01821391       0.00525129       0.00216927       0.00376927
H        3.59842980       1.19730986       0.79464556       0.02598404       0.00014287       0.00373261
H        2.01562309       1.88665952       0.46505814      -0.00799300       0.00675983      -0.02076577
H        3.56688448      -1.36669541       1.07408610       0.00821128       0.00087580       0.00372671
C        2.25924394      -2.86930430       1.84921408      -0.00002341      -0.01178144      -0.00185566
H        3.06376474      -3.40941672       2.37577413       0.01773798      -0.01172242      -0.00679529
H        1.76145351      -2.19564565       2.55582094       0.00578748       0.00483424       0.00279968
H        1.51965199      -3.61458354       1.51558200       0.00037002      -0.02091205      -0.00619466
C        3.59470064      -3.05423793      -0.26818636       0.00596986      -0.01463921      -0.00753051
H        4.06755758      -2.56006104      -1.12342061       0.01007371       0.01056036      -0.00186975
H        4.39334506      -3.56271296       0.29833475       0.00565271      -0.00854793       0.01079609
H        2.92863304      -3.84026939      -0.65406224      -0.00766920      -0.01803728      -0.00386096
H       -0.07574328      -1.10946371      -1.76668894       0.00077711       0.01287145       0.01257357
C        1.49153730      -2.08202187      -2.83471103       0.00689120      -0.00430724      -0.00094492
H        0.81912425      -2.55370813      -3.57153353      -0.01095182      -0.00035168       0.01337727
H        1.85996205      -1.15056145      -3.28715329      -0.00407976       0.00910302      -0.00665812
H        2.34529529      -2.75994013      -2.69736370       0.00291665      -0.01982028       0.00225317
C        0.02157917      -3.11649844      -1.06115925      -0.00437992      -0.00935742       0.00425369
H       -0.56495743      -2.94449976      -0.14746542      -0.00984471       0.00066245       0.00892102
H       -0.66616555      -3.47913463      -1.84357653       0.00078036       0.00155152      -0.01381689
H        0.74262824      -3.92440765      -0.86192753       0.00481653      -0.01911590      -0.00445095
