56
Properties=species:S:1:pos:R:3:forces:R:3 energy=62.54475021362305 pbc="F F F"
C        3.83142955       0.36160615      -1.18060263       0.00886318       0.00042994       0.00287577
H        4.28349560      -0.54263324      -1.59263915       0.00322170      -0.01496593       0.00833454
H        3.52124854       1.09760780      -1.92624978       0.01330649       0.00707144      -0.00935083
C        4.10721937       0.73847207       0.13429884       0.00831236       0.00010779       0.00210824
H        4.76560979       0.14084696       0.76782092       0.01657171      -0.00004446       0.00858557
H        3.99242841       1.78111697       0.44183673       0.00023746      -0.00035212      -0.01156099
H        2.33485264       0.42738080       1.55716070      -0.00184462       0.00162196       0.00089316
Rh       2.06854459      -0.23476013       0.09773597       0.00010023       0.01148605       0.00444218
O       -0.39185366       2.10850491       0.36897231       0.00219864      -0.00540943      -0.00142200
C        1.73442353       3.21450813      -0.94054986      -0.00120990       0.00746900      -0.00797754
C       -0.03530260       1.40554877      -2.26835087      -0.00406751       0.00629705      -0.00241672
O       -1.07468110      -1.14301424       0.20530220      -0.00892459      -0.00700279       0.00919764
C        0.40106538      -2.78857498       1.84293517       0.00070003       0.00008576       0.00692220
C       -0.34270111      -0.16201309       2.69538480       0.00275526      -0.00016252       0.01149438
P        0.26900511      -1.05116928       1.21703464      -0.00259903       0.00442867       0.00478213
P        0.84216716       1.62439997      -0.65414491       0.00439059      -0.00077688       0.00175122
C        2.42900507      -1.98696164      -0.56488050       0.00334522      -0.00467818       0.00254854
O        2.65898117      -3.08863976      -0.84573435      -0.00706757       0.01504145      -0.00720427
C       -1.32313742       3.14577068       0.06967614      -0.00133030      -0.00512508       0.00603486
H       -1.32594579       3.83381200       0.93378247       0.00661402      -0.00515936       0.00722192
H       -0.99997503       3.73220079      -0.80683092       0.00844538      -0.02015118       0.01362241
C       -2.72679862       2.60051985      -0.16255713      -0.00296094      -0.00258872       0.00049875
H       -3.38469064       3.45710460      -0.40048151       0.00787305       0.00132850      -0.00213311
H       -2.72163129       1.95399825      -1.05761067       0.00204781       0.00221735      -0.00168681
C       -3.29141656       1.82417775       1.02699994      -0.00442351      -0.00633481      -0.00641000
H       -3.24008288       2.45687172       1.93197739       0.00004248      -0.01601148      -0.00846140
H       -2.62952983       0.96638029       1.21651649      -0.00847405      -0.00105824       0.01167716
C       -4.72720954       1.34680342       0.81277877       0.00192236      -0.00451453       0.00292482
H       -5.41460194       2.19734422       0.66721781       0.00694902      -0.01071409      -0.00283131
H       -4.80792295       0.70382172      -0.07858927      -0.00334188       0.00819106       0.00216829
H       -5.09464577       0.76747255       1.67524216       0.00214676      -0.00179173      -0.00005447
H        2.54940808       3.04761492      -1.66073568      -0.00250710      -0.00479424      -0.01061914
H        1.08383619       4.01148013      -1.33213630      -0.00608474       0.00694480      -0.01178283
H        2.17361754       3.54459936       0.01244285       0.00349334       0.00327033      -0.00178973
H       -0.59416600       2.29366038      -2.60482243      -0.00047406       0.00456845       0.00290198
H        0.71633724       1.14261901      -3.02808196      -0.00446923       0.00439061      -0.00192799
H       -0.71800718       0.55114018      -2.15276156      -0.00484267       0.00408333       0.00281445
C       -2.31081388      -1.75465987       0.56104588      -0.00836448       0.00347541      -0.00726313
H       -2.14356490      -2.77567364       0.94971791      -0.01155670       0.01717517      -0.00241654
H       -2.81402379      -1.17588805       1.35658423       0.00057651      -0.00370408      -0.00239977
C       -3.19291380      -1.81697512      -0.67583608      -0.00972747      -0.00221096      -0.00415152
H       -4.19302341      -2.17403313      -0.36919061      -0.00713390      -0.00226464       0.01050978
H       -3.33081251      -0.79066093      -1.05836867       0.01107160      -0.00546473       0.00528671
C       -2.63138954      -2.71158093      -1.78141460      -0.00531399       0.00419082      -0.00468690
H       -2.51277957      -3.73833783      -1.38864204      -0.00103856       0.01317150      -0.00478471
H       -1.61574110      -2.36423538      -2.03397626      -0.00448173      -0.00812547      -0.00860151
C       -3.50389109      -2.73730244      -3.03494473       0.00302759      -0.00049644      -0.00246876
H       -4.51828600      -3.11142895      -2.81363387       0.00807831       0.00857455      -0.00263241
H       -3.61410784      -1.72737630      -3.46535055      -0.00749922      -0.00652006      -0.00022094
H       -3.07324672      -3.38518340      -3.81485826       0.00342877      -0.00047528       0.00275457
H       -0.46985606      -3.08753190       2.44584820       0.00595348       0.00487996       0.00747931
H        0.51617225      -3.47073769       0.98849836      -0.01262043      -0.00618055       0.01078446
H        1.30865744      -2.85317147       2.45969087      -0.00275391      -0.01525269       0.00937775
H       -0.49392277       0.88712723       2.41160057       0.00457312       0.00082723      -0.00147306
H       -1.27551017      -0.59894606       3.08303667      -0.00039629      -0.02029567      -0.01119321
H        0.44039787      -0.21785589       3.46533661       0.00750006      -0.00391864       0.01176503
