70
Properties=species:S:1:pos:R:3:forces:R:3 energy=54.23673629760742 pbc="F F F"
C       -2.20847861      -2.84387358      -0.01018500      -0.00609953      -0.01442460      -0.00584465
H       -2.07524555      -3.62769504       0.74249513      -0.01750277      -0.03712684      -0.00425930
H       -3.11987537      -2.25424453       0.11841427       0.00412565       0.00826836       0.00579492
C       -1.63933958      -3.01738324      -1.29757496      -0.00791936      -0.01120504      -0.00987857
H       -1.08758208      -3.92884380      -1.54108793      -0.00103788      -0.02281603      -0.00813243
H       -2.12320069      -2.54072775      -2.15435904      -0.01014376      -0.00649999       0.01332813
H       -1.30316278      -0.67462311      -1.14787228      -0.01479314       0.00651744      -0.00861824
Rh      -0.47356248      -1.54357501      -0.12345963      -0.00519659      -0.01227618      -0.00167624
C       -1.76426072       1.73194634       0.39061720       0.00006547      -0.00460384       0.00392600
C       -2.80313164      -0.22084551       2.23962343      -0.00147067      -0.00235909       0.01022084
C       -0.16433348       0.85569483       2.63555530       0.00694318       0.00299618       0.00876093
C        2.68113180       0.12594208       0.14601255       0.00238715       0.00087593      -0.00300020
C        2.45352287      -1.33810336      -2.26525341       0.00811989      -0.00176072      -0.00483329
C        0.96069761       1.20096731      -1.94148121      -0.00470480      -0.00600778      -0.00131938
P        1.36747329      -0.39552533      -1.08623326      -0.00285364      -0.00410598      -0.00097787
P       -1.25425668       0.19343745       1.27021964      -0.00054744       0.00085493       0.00112677
C        0.61297619      -2.92825602       0.66320721       0.02511659      -0.02641378       0.00789635
O        1.26800000      -3.84486843       0.91902284      -0.00728249       0.01559387      -0.01143801
C       -1.03206608       2.92280008       0.48774319       0.00495219       0.01992806      -0.00265275
H       -0.17354561       2.97242391       1.15777013       0.00679234       0.00427227       0.00254653
C       -2.84749426       1.70196527      -0.52244906      -0.00368009       0.00101475      -0.00368307
O       -3.52019905       0.52750905      -0.62715698      -0.00375893      -0.00964211      -0.01174651
C       -4.46939684       0.35462671      -1.65534005      -0.00913829       0.00174814      -0.01078415
H       -5.35421069       1.00028268      -1.51076923      -0.01748185       0.00410382       0.00112465
H       -4.78199961      -0.69727770      -1.61545848       0.01879520      -0.00300952       0.01968989
H       -4.03267793       0.56183651      -2.64830756       0.00124127       0.00111200      -0.02125113
C       -1.35429713       4.05656729      -0.26553869      -0.00054111      -0.01502254       0.00402663
H       -0.76147794       4.96808948      -0.16141688      -0.00641402      -0.01910678      -0.00260304
C       -3.17800509       2.83505528      -1.27864546       0.00032640      -0.00965700       0.00176692
H       -4.01244977       2.80708685      -1.97889318      -0.00132134       0.01265866      -0.00863143
C       -2.43207211       4.00949032      -1.14710514      -0.01131212       0.01304228      -0.01457738
H       -2.70179991       4.88659881      -1.74107743      -0.00107748       0.01464145      -0.00751411
H       -3.54442786      -0.52131930       1.48828998      -0.00492853      -0.00173804      -0.00384320
C       -2.58152303      -1.33307707       3.26197641       0.00062725      -0.00671758       0.01374512
H       -1.92089532      -1.01356283       4.08349044       0.00364601       0.00760497       0.01411691
H       -2.12223005      -2.21338400       2.78689286      -0.00013688      -0.01492393      -0.00272488
H       -3.18584503       0.69718022       2.71369201       0.00771905       0.00564028       0.01705959
H       -3.53829642      -1.64625339       3.71077283      -0.01496833       0.00180663       0.00942588
H        0.71220535       1.30401838       2.14503400       0.00399342       0.00520024      -0.00586997
C       -0.77898072       1.80205485       3.66739861      -0.00619987       0.00655772       0.01054828
H       -1.53482906       1.29201894       4.28292018       0.00014569      -0.00289814       0.02047157
H       -1.26733394       2.66896637       3.19733321      -0.00620507       0.02005629       0.00339037
H        0.22765695      -0.04733701       3.12886630       0.00224973      -0.00331775       0.01107891
H       -0.00261066       2.18437686       4.35062435       0.01139901      -0.00401268      -0.00082179
C        2.62399183      -0.41250164       1.43810186       0.00031555       0.00287825       0.00024038
H        1.80158266      -1.08680796       1.67180227       0.00378196      -0.00899141      -0.00621841
C        3.76625552       0.99365558      -0.14683185       0.00748058       0.00530524       0.00195843
O        3.85787960       1.47397065      -1.41613560       0.01186835       0.00478572      -0.00194929
C        4.88032336       2.38640597      -1.74622603       0.01692277       0.00787031       0.00482545
H        4.82437979       3.30251563      -1.13153081       0.00776791       0.02078891       0.00827817
H        4.73044929       2.65345131      -2.80070040      -0.02312397      -0.01578335       0.00032011
H        5.88307338       1.93857673      -1.62716609       0.02458359      -0.00376299      -0.00268629
C        3.56933596      -0.11133295       2.42379571      -0.00173299       0.00580326       0.00137713
H        3.48759393      -0.56121416       3.41570339       0.00018766       0.00915965      -0.01276602
C        4.70427048       1.32450197       0.84408187       0.00862488       0.00711075       0.00513244
H        5.52740851       2.00271227       0.62222258       0.01219987       0.00167634       0.01322669
C        4.60456283       0.76954573       2.12319700       0.01701926       0.01130111       0.00857142
H        5.35024572       1.02986402       2.87931744       0.01261798      -0.00354097       0.01725246
H        2.93354597      -2.11014732      -1.64128229       0.00730481      -0.00974497      -0.00017119
C        1.68609268      -1.98984510      -3.41223802      -0.00373663       0.00043998      -0.01373347
H        1.27772372      -1.24045336      -4.10781306      -0.00381136       0.01521645      -0.01791181
H        0.84162932      -2.58004676      -3.02288781      -0.00236527      -0.00721957       0.01030120
H        3.24707052      -0.66511920      -2.62658437       0.00864178       0.01501370      -0.01485478
H        2.34305695      -2.65804422      -3.99219270       0.01514278      -0.00316315      -0.00631702
H        1.86771902       1.55734739      -2.44363343       0.00772707      -0.02472172      -0.00393054
C       -0.22330775       1.15886543      -2.90425892      -0.00310978      -0.00458906      -0.00213533
H       -1.10117516       0.69860515      -2.43084293      -0.01203055      -0.00479121       0.00212364
H        0.00456334       0.57935095      -3.81206610      -0.00259535       0.00576584      -0.01547731
H        0.74871061       1.90970115      -1.12662049      -0.00321872      -0.00392131       0.00170684
H       -0.49664098       2.18118214      -3.20946169       0.00984479       0.01402790       0.00093195
