94
Properties=species:S:1:pos:R:3:forces:R:3 energy=51.098121643066406 pbc="F F F"
C        0.67223836       2.26819500      -3.07466146      -0.01099075       0.00692965      -0.00215546
H        0.43644205       1.80602446      -4.03682804       0.01081898       0.00248679       0.00087946
H       -0.16983020       2.74449476      -2.57016365       0.01049295       0.00849725      -0.00494228
C        1.98636412       2.68978562      -2.81709223      -0.00250571       0.00657307      -0.00099637
H        2.78212125       2.55102249      -3.55187082      -0.00587151       0.00116059      -0.00820696
H        2.14128707       3.52803084      -2.12974914       0.00633620       0.00185532      -0.00785796
H        1.89789386       1.88444380      -0.75494735      -0.00179806       0.00706916       0.00374363
Rh       1.45916667       0.71735908      -1.72679658      -0.00154760      -0.00152514       0.00425957
O       -0.49686689       0.76201433       1.18695482       0.01513627      -0.00175178      -0.00240759
O       -1.40867946       2.09419007      -0.79564984      -0.00449694      -0.00272501      -0.00105907
O       -1.53416997      -0.49289881      -0.70721246      -0.00508515      -0.00139237       0.00406186
O        3.46338451      -1.95188896      -1.43331454      -0.00770944      -0.01519653       0.00271950
O        4.14571269      -0.28087239       0.29306957      -0.00767990       0.00598092      -0.01684262
O        2.15318898      -1.62689300       0.74295624      -0.02157792      -0.00039944      -0.00604711
P        2.80186583      -0.76527059      -0.55402337      -0.00557619      -0.00472987      -0.00055189
P       -0.48418516       0.73950438      -0.45899613       0.01025237      -0.00885736      -0.01165830
C        1.39963216      -0.52537290      -3.20882525       0.00515573       0.01233542       0.01217839
O        1.46463296      -1.19959509      -4.13710215       0.00808959      -0.00458594      -0.00607843
C        0.44177350       1.51997821       1.98245115       0.00190736      -0.00206621       0.00165974
H        1.43944731       1.40844236       1.52988145       0.00115510       0.00637264       0.02120935
C        0.44561861       0.89183982       3.36691943       0.00506155       0.00813328       0.00118910
H        0.74509769      -0.16357583       3.30634893      -0.00165902       0.00962307       0.00112879
H       -0.55614147       0.94902558       3.82328924       0.01092163       0.00295869      -0.00678823
H        1.15917587       1.41819764       4.01754915       0.00204452       0.00455395       0.00524839
C        0.07222189       2.99863235       2.01101446       0.00337053      -0.00627847       0.00090391
H        0.04479294       3.42152073       0.99695200       0.00313440      -0.00671029       0.01146204
H       -0.91409147       3.15262457       2.47760236       0.01615766      -0.00650886      -0.00913731
H        0.82167071       3.55286332       2.59672201      -0.00328377      -0.00299145      -0.00026480
C       -2.77575603       2.21875003      -0.66291181       0.00005320      -0.00147262      -0.00160453
C       -3.39987818       2.16980911       0.58745604       0.00040672      -0.00270521       0.00394820
H       -2.79631607       2.02996505       1.48276553      -0.00302908      -0.00052694       0.00452615
C       -3.53506003       2.38959490      -1.82140289      -0.00634970       0.00038629      -0.00424062
H       -3.02515590       2.43045675      -2.78583636      -0.00906851       0.00304737      -0.00241644
C       -4.78908644       2.24946906       0.66091492       0.00063330       0.00138099       0.00043313
H       -5.27298873       2.18504727       1.63944435       0.00084660       0.00557109       0.00103318
C       -4.92586378       2.47713940      -1.72939113      -0.00633063       0.00178039      -0.00516749
H       -5.51544334       2.59894589      -2.64251733      -0.00660530       0.00729468      -0.00632479
C       -5.57873181       2.39027330      -0.49187258      -0.00050943       0.00081950      -0.00252994
C       -7.08280296       2.40094417      -0.39588871       0.00063591      -0.00102960       0.00066477
H       -7.43180150       3.01173920       0.45198287      -0.00603493      -0.00413571      -0.00231666
H       -7.47104906       1.37860401      -0.23997163       0.00314746       0.00000433      -0.00094343
H       -7.54572785       2.79431124      -1.31349934      -0.00019030      -0.00427091       0.00102405
C       -2.72927123      -0.82226948      -0.09608473      -0.00761186       0.00421170       0.00339187
C       -3.85492096      -0.93402100      -0.91278900      -0.00784981       0.00600035       0.00117215
H       -3.75410612      -0.72506178      -1.97821014      -0.00169308       0.00228045       0.00225971
C       -2.81685655      -1.08660219       1.27139609      -0.00456785       0.00366312       0.00353659
H       -1.92502226      -1.01625728       1.88828752      -0.00426147      -0.00179881      -0.00136646
C       -5.08267979      -1.27631988      -0.34994117      -0.00757053       0.00400864      -0.00103811
H       -5.96204144      -1.34901601      -0.99587389      -0.00607374       0.00085640      -0.00493245
C       -4.05546397      -1.42767762       1.81758467      -0.00371784      -0.00189714       0.00428768
H       -4.12160108      -1.63012388       2.89069646      -0.00614067      -0.00861494       0.00234385
C       -5.21061891      -1.52118728       1.02666664      -0.00325812      -0.00092124       0.00112413
C       -6.55147158      -1.84479025       1.63432417       0.00004775      -0.00156385      -0.00015960
H       -7.18388431      -2.41419732       0.93540290      -0.00623872       0.00060583       0.00446905
H       -7.10296749      -0.92343456       1.89421156       0.00325703      -0.00002225      -0.00317469
H       -6.44642768      -2.43428625       2.55804110      -0.00329088       0.00145578       0.00035067
C        4.40508762      -2.92877239      -0.88988256       0.00568354      -0.01361069      -0.01414153
H        4.36018992      -2.87357724       0.20937442       0.00428232      -0.00606938      -0.03435306
C        5.80099340      -2.54946780      -1.36183208      -0.00217653      -0.01122110       0.00644851
H        6.06010425      -1.54331875      -1.00384517       0.00634673      -0.02009723       0.00031331
H        5.84801818      -2.55776260      -2.46218128       0.00322996      -0.01001873       0.01977651
H        6.54705457      -3.26181825      -0.97430085       0.00376630       0.00410798      -0.00549405
C        3.95758149      -4.30968062      -1.34200269       0.00974830      -0.00364527       0.00162596
H        2.95258908      -4.54073653      -0.95921096       0.01540917      -0.00597559      -0.00373263
H        3.93780612      -4.36852823      -2.44163431       0.00554621      -0.00853454       0.01456292
H        4.65678334      -5.07435144      -0.96644503       0.00209135       0.00536061      -0.00772102
C        4.08117015       0.83399510       1.10328382      -0.00332435       0.01022884       0.00000543
C        4.01579911       0.67888830       2.48666931      -0.00411516       0.00112031       0.00216722
H        4.02747377      -0.32660158       2.91076233       0.00151894       0.00467427       0.00748913
C        4.06658262       2.10581688       0.52656530       0.00924583       0.01642898       0.00357660
H        4.12810689       2.19482219      -0.55669844       0.01485716       0.02237074       0.01453412
C        3.92869219       1.81594046       3.29504201      -0.00450689      -0.00202529       0.00110390
H        3.89747495       1.69750418       4.38154104      -0.00040916      -0.00624438      -0.00152452
C        3.93169176       3.22456425       1.34324537       0.00210773       0.01362248       0.00032391
H        3.87417684       4.21431951       0.88190913       0.01157794       0.01892632      -0.00199156
C        3.86362048       3.10241642       2.74034978      -0.00563905       0.00287636       0.00131793
C        3.72355360       4.32913325       3.60439003      -0.00224070      -0.00106057       0.00165658
H        2.71012031       4.76028515       3.52735171      -0.00092470      -0.00259119       0.00465589
H        4.43080361       5.11439476       3.29308110      -0.00251980       0.00039041       0.00335786
H        3.90972259       4.10079626       4.66381291      -0.00592517       0.00229977       0.00061885
C        1.04943797      -2.44972922       0.74198659      -0.00750497      -0.00407201      -0.00052013
C        0.50798000      -2.79513898       1.98815653      -0.00249958       0.00126050       0.00295231
H        0.99494632      -2.43751468       2.89712227       0.00376331       0.01297140      -0.00084524
C        0.46429810      -2.96177717      -0.42115488      -0.00456971      -0.00315729      -0.00733153
H        0.89622054      -2.74563186      -1.39649117      -0.00662341       0.00812126       0.00432925
C       -0.63577784      -3.59226092       2.05986252       0.00227405      -0.00387449       0.00889124
H       -1.05753875      -3.83445724       3.04050816       0.00313170       0.00339493       0.01639711
C       -0.69205313      -3.74088736      -0.32886818      -0.00139631      -0.00467280      -0.00881526
H       -1.15688298      -4.10123089      -1.25048274      -0.00722857      -0.00686653      -0.00931762
C       -1.28014732      -4.05760495       0.90237136       0.00286849      -0.00152600      -0.00201692
C       -2.58592213      -4.80990101       0.97150616       0.00209189       0.00547913       0.00031479
H       -2.69672836      -5.35267141       1.92345727      -0.00148209       0.00405397      -0.00229825
H       -2.68142626      -5.53805351       0.15104639       0.00158536       0.00789011       0.00482637
H       -3.43676369      -4.11032707       0.89219044       0.00301698       0.00190227      -0.00125760
