60
Properties=species:S:1:pos:R:3:forces:R:3 energy=45.021949768066406 pbc="F F F"
C       -0.43465707       3.50908132      -0.54227611      -0.00597110       0.00930187       0.00032461
H        0.35908568       4.03346132      -1.07950159       0.01860195       0.02155242      -0.00055233
H       -1.38325193       3.42987839      -1.07509610      -0.00799418       0.00739823      -0.01358100
C       -0.43943430       3.52345380       0.87734293      -0.00430410       0.00638734       0.00397074
H        0.36726485       4.03606387       1.40730869       0.00614256       0.00273893      -0.02147477
H       -1.40383622       3.54929081       1.39036014      -0.01413421      -0.00868859      -0.00718283
H       -0.36886628       1.92016556       1.48348134       0.01113282       0.01427086       0.01133705
Rh       0.31208698       1.52451267       0.04044764      -0.00131188       0.00915528      -0.00396931
C       -2.61909949      -0.76171619      -0.15335120       0.00452447      -0.00701080       0.00681336
O       -2.75407580       1.66719978      -1.32137464      -0.00690848       0.00183431      -0.00173592
O       -1.35547676      -0.20215615      -2.38268853      -0.00929200       0.01221485      -0.01491570
C        2.64897467      -1.07943173       0.03202628       0.01516278       0.00022830       0.01985240
O        2.00867681      -0.15934017       2.45044698      -0.01206754      -0.00883218       0.01235525
O        0.34255132      -1.65534419       1.21292084      -0.02499658       0.01801169      -0.00441572
P        1.28186812      -0.32007354       0.97119130      -0.00073277      -0.00525755      -0.00302144
P       -1.57217206       0.56145801      -0.90054882       0.00146872       0.00909405       0.00315545
C        1.96717377       1.96148545      -0.78875246      -0.01318015      -0.01075546       0.00410619
O        2.98034237       2.31741014      -1.21479124       0.02135107       0.00623143       0.01452502
C       -2.59933916      -2.06525762      -0.67108399       0.00576979      -0.00313671       0.00060548
H       -2.00489324      -2.26841884      -1.56121814       0.00393868      -0.01807262      -0.01132312
C       -3.39719143      -0.47347925       0.99480032      -0.00485473       0.00932504       0.01509708
C       -3.44822234       0.90387523       1.60568145      -0.00543991       0.00480184       0.00614147
H       -3.91243751       1.63327494       0.92490593      -0.01450938      -0.00525094      -0.01641224
H       -2.43249165       1.27956789       1.81040299       0.00890682      -0.01430030       0.01083223
H       -4.01477804       0.89486250       2.54771316      -0.01419740      -0.02641897       0.00333753
C       -3.33839296      -3.08740180      -0.07339382       0.00000923       0.00959800       0.00600526
H       -3.31263796      -4.09634653      -0.49233274      -0.00406632       0.01734160       0.01636930
C       -4.13465773      -1.51442369       1.57693394       0.00126369       0.00297987      -0.00130544
H       -4.73918791      -1.30016043       2.46269564       0.00455345      -0.00299055      -0.00881610
C       -4.10880593      -2.80994581       1.05689738      -0.00041669       0.00377944       0.00450998
H       -4.69197977      -3.60087910       1.53561895       0.00030140       0.00458457       0.00360076
C       -3.92595937       1.29373391      -2.03664273      -0.00479017      -0.00817341      -0.01168985
H       -3.67612963       0.66888230      -2.90848627      -0.01334053      -0.01178497      -0.02682180
H       -4.62694056       0.73613276      -1.39258501      -0.00789384      -0.00418088       0.00017518
H       -4.40853818       2.22133854      -2.37779048       0.00792684       0.00932001       0.00564841
C       -0.41322544       0.34693992      -3.29630888      -0.00055055       0.01174344      -0.01038972
H       -0.74096113       1.33639198      -3.65690689      -0.00926901       0.01718504      -0.01820175
H        0.57658011       0.45795509      -2.82409229       0.02296225      -0.00607864      -0.00479975
H       -0.34620116      -0.34768020      -4.14521771      -0.01017566      -0.01806100      -0.00456541
C        3.94960441      -0.68020813       0.37558690       0.00486332      -0.00854301       0.00170187
H        4.09197166      -0.02577749       1.23638273       0.00981709      -0.00522684       0.00802298
C        2.44430432      -1.94085703      -1.07123349      -0.02494172      -0.02494606      -0.00792980
C        1.08872964      -2.45370816      -1.48182438       0.00851800      -0.00754846       0.00319441
H        0.33884446      -1.65520032      -1.52589447       0.01162960       0.01958962       0.00067286
H        0.71344328      -3.19061198      -0.75632144       0.00115097      -0.01397216       0.01511426
H        1.13972815      -2.92909312      -2.47250334       0.02796275      -0.00444502      -0.00598102
C        5.05468989      -1.10932286      -0.35824475       0.00336208       0.00059722       0.00254075
H        6.05904074      -0.78756022      -0.07321626      -0.00779769      -0.00374233      -0.01588376
C        3.57142241      -2.35000510      -1.80032470       0.02842350       0.00196525       0.00301263
H        3.42470912      -3.00935218      -2.66041393       0.00800660       0.00848589      -0.00426021
C        4.86183279      -1.94480819      -1.45814703      -0.01024523      -0.01627214      -0.02100458
H        5.71408465      -2.28390449      -2.05275036       0.00114353      -0.00157578      -0.00916423
C        1.74700985       0.91415649       3.34210647      -0.00898998       0.00056387       0.01094287
H        1.61037923       1.86053952       2.79484743      -0.01207154       0.01500674       0.00056139
H        0.83992424       0.71710815       3.93851336      -0.00904795      -0.00451391       0.02335956
H        2.61031922       0.99618513       4.01852481       0.02337103      -0.01286608      -0.00145439
C       -0.55500867      -1.72540122       2.30612359       0.00588880      -0.01415171       0.00495233
H       -0.01334473      -1.96496857       3.23642570       0.00511325      -0.01438415       0.01746526
H       -1.10714691      -0.78111585       2.44235528      -0.03385078       0.01436581       0.02612553
H       -1.27743372      -2.52215805       2.08371138       0.03036563       0.00116361      -0.01832787
