106
Properties=species:S:1:pos:R:3:forces:R:3 energy=85.15504455566406 pbc="F F F"
C        1.24385477      -1.02713788      -3.40933024       0.00896250       0.00496958       0.00293879
H        1.45830527      -2.04994483      -3.72980804       0.01152496       0.00423509       0.00668257
H        0.43144023      -0.55302978      -3.96624875       0.00566035       0.00129512       0.00036479
C        2.32415628      -0.20834010      -2.95315664       0.00031392       0.00347222      -0.00618840
H        3.32421040      -0.64553089      -2.87438155       0.00052248       0.01032218      -0.00309244
H        2.34011290       0.84452305      -3.24896669      -0.00542783      -0.01266757      -0.01496325
H        1.83978943       0.41095668      -1.52538567       0.00644142      -0.00118485      -0.00289127
Rh       1.03259194      -0.99287394      -1.24734004      -0.00568066       0.00062514       0.00457437
C       -0.80279819       2.00173146      -0.50052412       0.00478100       0.00656405      -0.00059018
C       -1.83830836       0.58840007      -2.77504849      -0.00191446      -0.00019256      -0.00028007
C       -2.30701480      -0.43932499      -0.12118588      -0.00220669      -0.00181014      -0.00222461
C        0.09899432      -1.21996178       2.16012597      -0.00947564      -0.00339851       0.00957790
C        2.79457665      -1.96144398       1.70405766      -0.00356748      -0.00069664      -0.00324971
C        2.01507747       0.87199794       1.65558032       0.00105203      -0.00224509      -0.00331869
P        1.50953344      -0.80396043       1.03250661      -0.01145105      -0.00199178       0.00539756
P       -0.96524660       0.29293796      -1.15771750      -0.00065374       0.00435297      -0.00163935
C        1.10440049      -2.87664328      -1.18084613       0.00482973       0.00059825       0.00270286
O        1.24405140      -4.02871644      -1.14448131       0.00566639       0.01800041       0.00309770
C       -0.14107922       2.97298114      -1.28146588       0.00732262       0.00326713      -0.00955517
H        0.20197338       2.71860848      -2.28771117       0.01288894      -0.00146431      -0.01112813
C       -1.18868478       2.36860724       0.79415631       0.00423439      -0.00400159       0.00435656
H       -1.68648029       1.64760724       1.44375676       0.00228677      -0.00625879       0.01025478
C        0.11100511       4.24845259      -0.79455534       0.00883000       0.00418245      -0.00744619
H        0.62329082       4.99816967      -1.40065623       0.00664817       0.01406914      -0.00569892
C       -0.93695716       3.65030039       1.30372085      -0.00020095      -0.00719969       0.01406278
H       -1.24980278       3.88627418       2.32087236      -0.00275447       0.00025229       0.02343972
C       -0.28159943       4.59942571       0.50955692       0.00624837      -0.00763013       0.00495665
O        0.03135072       5.86016268       0.90953018       0.00042686      -0.00164061      -0.00460840
C       -0.28959288       6.25486416       2.22428950       0.00385720       0.00746546      -0.00657327
H        0.21773089       5.62226271       2.97513333      -0.01336416       0.00532337      -0.00690700
H        0.05799088       7.29067113       2.33577257       0.00095294       0.00584414       0.00095230
H       -1.37874709       6.22059818       2.40868803       0.01627151      -0.00041614       0.00568374
H       -2.66505571       1.30504838      -2.64178249      -0.00156487      -0.00170157       0.00393682
H       -1.10604275       1.07199886      -3.44286705      -0.00091441       0.00050052       0.00409874
C       -2.32521332      -0.72171325      -3.39938807       0.00188781       0.00066993      -0.00874335
H       -1.53356769      -1.48460076      -3.30316758      -0.01112161       0.00048886      -0.00575110
H       -3.18177429      -1.10873058      -2.82096627       0.01495244      -0.00099261      -0.00387607
C       -2.72718892      -0.58797614      -4.86801390      -0.00039693      -0.00559133      -0.00408591
H       -1.86447142      -0.20869184      -5.44718920      -0.01511997       0.00063251      -0.00329075
H       -3.51786582       0.17871257      -4.96913413       0.01027294      -0.01013643      -0.00321585
C       -3.20910714      -1.90429168      -5.47942552      -0.00195510       0.00262502      -0.00899678
H       -2.41213169      -2.66264129      -5.37137621      -0.01633892       0.00366207      -0.00765045
H       -4.06448158      -2.28559085      -4.89228246       0.01143682      -0.00324762      -0.01564063
C       -3.60715473      -1.78204602      -6.94876884      -0.00136398      -0.00504104       0.00042234
H       -3.94775993      -2.74521698      -7.36125224       0.00024770       0.00141383       0.00157094
H       -2.75877878      -1.43674621      -7.56382638      -0.01455659      -0.00061683       0.00171453
H       -4.42506788      -1.05344913      -7.08116666       0.01074283      -0.00952464      -0.00693058
H       -2.35892190      -1.49494833      -0.43178796       0.00022594       0.00215364      -0.00651724
H       -1.90390795      -0.47199982       0.89771490      -0.00054503       0.00092604      -0.00889265
C       -3.69733689       0.19071049      -0.11009447      -0.00187628      -0.00278361       0.00166396
H       -3.62576284       1.27311985       0.09066716      -0.00215951      -0.00454520      -0.00038893
H       -4.17397371       0.09555109      -1.10054680       0.00285183       0.00122999       0.00428739
C       -4.57950099      -0.46783504       0.95294537      -0.00359741       0.00290043       0.00292099
H       -4.07287373      -0.39748647       1.93248198      -0.00347238      -0.00428460      -0.00495322
H       -4.65268297      -1.55087767       0.73833566       0.00059991       0.01008401       0.00436857
C       -5.98177337       0.12384728       1.07213562      -0.00146835      -0.00573303       0.00657402
H       -5.90002282       1.20516433       1.28565796      -0.00941242      -0.01257510       0.00280179
H       -6.49768113       0.04804840       0.09737928      -0.00347630      -0.00093673       0.01417069
C       -6.81651265      -0.55412465       2.15744558      -0.00128539       0.00153332      -0.00166197
H       -7.81867357      -0.10551261       2.24646011       0.00343692       0.00036958      -0.00405305
H       -6.32187832      -0.47769622       3.14033214      -0.00915579      -0.00559543      -0.01079314
H       -6.95003246      -1.62785864       1.93943179       0.00175439       0.00686360       0.00559146
C       -0.40342766      -0.33996250       3.13827689      -0.00537040       0.00412999       0.00943384
H        0.09212489       0.60990982       3.33619536      -0.00110020       0.00853096       0.00761794
C       -0.57426128      -2.43835744       1.98296059      -0.00507394      -0.00827663      -0.00004260
H       -0.22461745      -3.14619347       1.22816833      -0.00422823      -0.01308203       0.00538521
C       -1.55948317      -0.63529416       3.85509657      -0.00647557       0.00799267       0.00909006
H       -1.96106990       0.06080931       4.59440673      -0.00568683       0.01176019       0.01415896
C       -1.72393976      -2.76107746       2.71133854      -0.00582024      -0.01025691      -0.00725654
H       -2.22296465      -3.71219752       2.52572637      -0.01201415      -0.01595750      -0.00182928
C       -2.24530546      -1.84047826       3.63378018      -0.00113037      -0.00195236      -0.00484461
O       -3.39336986      -2.01165652       4.33768032      -0.00241332      -0.00021404      -0.00190720
C       -4.17544721      -3.16262634       4.11001260      -0.00922660       0.00625325       0.00625598
H       -3.63634976      -4.08696805       4.38574163      -0.01361950       0.01014552      -0.00786133
H       -5.06483075      -3.06628573       4.74750453      -0.00986212      -0.00209127       0.00173297
H       -4.49748140      -3.23444510       3.05607417       0.00323399      -0.00502629       0.01705439
H        2.87325734      -1.81158716       2.79460673      -0.00668053       0.00562112      -0.00566260
H        2.38952003      -2.97433229       1.54463416       0.00502222       0.00151150       0.00679990
C        4.14913802      -1.82427364       1.01378360       0.00110004      -0.00627315       0.00146809
H        3.98476357      -1.78398387      -0.07749569       0.01137046       0.00011937       0.00972204
H        4.60920095      -0.85910918       1.28925617       0.00090619      -0.01035649      -0.00233220
C        5.11687355      -2.95917026       1.34500966       0.00685669       0.00019716      -0.00372732
H        4.66282128      -3.92124519       1.04419903       0.01474678       0.00529619       0.00907766
H        5.25747176      -3.02136184       2.44080164       0.00729936      -0.00613633      -0.01307689
C        6.47627837      -2.80010136       0.66374936       0.00508656      -0.00755852       0.00080696
H        6.32265863      -2.72376262      -0.42805772       0.01270113      -0.00300066       0.01053801
H        6.92375164      -1.83664076       0.97051821       0.00725220      -0.01425668      -0.00992859
C        7.44669692      -3.93848187       0.97046324       0.00434970       0.00273018      -0.00398217
H        8.41470469      -3.79613769       0.46391816       0.00222302      -0.00218022       0.00063142
H        7.03699311      -4.90821840       0.64062208       0.00922269       0.00670864       0.00934659
H        7.64267379      -4.01601580       2.05330581       0.00218576      -0.00614499      -0.01419192
H        1.08146758       1.44486963       1.75176611       0.00199720      -0.01147739      -0.00305880
H        2.44333993       0.76227661       2.66684987       0.01222535      -0.01094079      -0.01056970
C        2.94023704       1.65001912       0.72539917      -0.00540177       0.00543942      -0.00443488
H        3.92877330       1.16534136       0.65442564      -0.01052755       0.00456856      -0.01448040
H        2.51352519       1.60096760      -0.28803770       0.01743302      -0.00396762      -0.00813223
C        3.09622400       3.11853230       1.11242180       0.00101677       0.00343722      -0.00440946
H        3.64810613       3.21419052       2.06606264      -0.00797565       0.00132698      -0.01674220
H        2.09510406       3.54633458       1.29313182       0.01600933       0.00326587       0.01192106
C        3.79056865       3.93546961       0.02302739      -0.00385138       0.00878187       0.00241210
H        4.80964379       3.54007114      -0.14229734      -0.00971928       0.01476501      -0.00018917
H        3.25018278       3.77877565      -0.92822583       0.00397292       0.00466731       0.00640972
C        3.84756720       5.42894284       0.33366764      -0.00053002       0.00035089      -0.00417703
H        4.34765126       5.99445764      -0.46917850       0.00043353      -0.00182717      -0.00155590
H        4.39892963       5.62036960       1.27003598      -0.00915803       0.00483745      -0.00830389
H        2.83117786       5.83966946       0.45668074       0.01047089       0.00284738       0.00243811
